 written on  2Jan2020 at 17:11:34 
          18
          93
    4    6    2    2    2    1    2    2    1    1    2    6    2    2    2
    6    2    2    4    1    1    1    4    1    1    1    1    2    1    1
    1    2    2    1    1    2    4    2    1    2    1    1    1    1    2
    1    1    1    2    1    1    1    1    2    1    2    4    2    1    1
    2    2    1    1    1    2    1    1    1    1    4    1    1    1    4
    2    2    6    2    2    2    6    2    1    1    2    2    1    2    2
    2    6    4
   -3    1    1    1    1   -0.006784    0.007456
   -3    1    1    2    1   -0.006008    0.004648
   -3    1    1    3    1   -0.004529    0.000705
   -3    1    1    4    1    0.000162    0.002244
   -3    1    1    5    1    0.000922    0.000992
   -3    1    1    6    1    0.000771   -0.000649
   -3    1    1    7    1   -0.000547    0.001419
   -3    1    1    8    1   -0.000897   -0.000862
   -3    1    1    9    1    0.000855    0.000254
   -3    1    1   10    1    0.003868    0.002946
   -3    1    1   11    1    0.002918   -0.004607
   -3    1    1   12    1    0.001359    0.001804
   -3    1    1   13    1    0.003177   -0.001052
   -3    1    1   14    1    0.007697    0.002287
   -3    1    1   15    1    0.011824   -0.014484
   -3    1    1   16    1    0.008565    0.010691
   -3    1    1   17    1    0.005912   -0.009458
   -3    1    1   18    1   -0.003273    0.005383
   -3    1    1    1    2    0.000187    0.001468
   -3    1    1    2    2   -0.010980   -0.000255
   -3    1    1    3    2    0.006977    0.002698
   -3    1    1    4    2   -0.010519    0.002835
   -3    1    1    5    2   -0.001636   -0.000398
   -3    1    1    6    2   -0.000568   -0.000629
   -3    1    1    7    2   -0.001116    0.000067
   -3    1    1    8    2   -0.001430   -0.002536
   -3    1    1    9    2    0.001888   -0.000755
   -3    1    1   10    2   -0.002202   -0.000859
   -3    1    1   11    2   -0.006884    0.008135
   -3    1    1   12    2    0.015717   -0.002492
   -3    1    1   13    2    0.000491    0.002411
   -3    1    1   14    2   -0.004826    0.002987
   -3    1    1   15    2    0.032946   -0.016619
   -3    1    1   16    2   -0.005708    0.003486
   -3    1    1   17    2    0.000645   -0.004644
   -3    1    1   18    2   -0.005316   -0.001297
   -3    1    1    1    3   -0.003574   -0.000132
   -3    1    1    2    3    0.008443    0.002498
   -3    1    1    3    3   -0.009872   -0.003859
   -3    1    1    4    3   -0.008074    0.000212
   -3    1    1    5    3    0.001671    0.001804
   -3    1    1    6    3    0.000928    0.000569
   -3    1    1    7    3    0.000920    0.000574
   -3    1    1    8    3   -0.001420    0.002623
   -3    1    1    9    3    0.000604    0.000442
   -3    1    1   10    3    0.002279    0.003126
   -3    1    1   11    3    0.007339   -0.006722
   -3    1    1   12    3   -0.003271   -0.001570
   -3    1    1   13    3    0.003499   -0.001427
   -3    1    1   14    3    0.011013   -0.003651
   -3    1    1   15    3   -0.017949    0.012983
   -3    1    1   16    3    0.010403    0.002373
   -3    1    1   17    3    0.011874   -0.000308
   -3    1    1   18    3    0.005568    0.002419
   -3    1    1    1    4    0.004232   -0.004542
   -3    1    1    2    4   -0.007025   -0.003619
   -3    1    1    3    4   -0.008758   -0.002312
   -3    1    1    4    4   -0.004562   -0.001656
   -3    1    1    5    4   -0.000368    0.000480
   -3    1    1    6    4    0.000257    0.000527
   -3    1    1    7    4   -0.000396   -0.000566
   -3    1    1    8    4   -0.001528    0.001235
   -3    1    1    9    4   -0.000303   -0.000261
   -3    1    1   10    4    0.002640   -0.002876
   -3    1    1   11    4   -0.001715    0.007331
   -3    1    1   12    4    0.003318   -0.006245
   -3    1    1   13    4    0.004944    0.002184
   -3    1    1   14    4    0.002910   -0.012577
   -3    1    1   15    4    0.019485    0.015084
   -3    1    1   16    4    0.001404   -0.000266
   -3    1    1   17    4    0.025691    0.020628
   -3    1    1   18    4    0.003704    0.008634
   -3    1    1    1    5   -0.002334   -0.000419
   -3    1    1    2    5   -0.001552    0.001968
   -3    1    1    3    5   -0.000310    0.001052
   -3    1    1    4    5    0.001271    0.001408
   -3    1    1    5    5   -0.000007   -0.000120
   -3    1    1    6    5   -0.000034   -0.000141
   -3    1    1    7    5   -0.000317    0.000147
   -3    1    1    8    5    0.000465    0.001032
   -3    1    1    9    5   -0.000279   -0.000331
   -3    1    1   10    5    0.003126    0.000291
   -3    1    1   11    5    0.001488   -0.001032
   -3    1    1   12    5    0.000101   -0.002904
   -3    1    1   13    5   -0.000448   -0.003116
   -3    1    1   14    5   -0.001207   -0.000900
   -3    1    1   15    5   -0.001357    0.000670
   -3    1    1   16    5   -0.001625    0.011250
   -3    1    1   17    5    0.005650   -0.000446
   -3    1    1   18    5   -0.000449   -0.008226
   -3    1    1    1    6   -0.000058   -0.000460
   -3    1    1    2    6   -0.001070   -0.000558
   -3    1    1    3    6    0.001382    0.000590
   -3    1    1    4    6    0.000242    0.000444
   -3    1    1    5    6   -0.000421   -0.000426
   -3    1    1    6    6    0.000104   -0.000071
   -3    1    1    7    6   -0.000226   -0.000216
   -3    1    1    8    6    0.000283   -0.000442
   -3    1    1    9    6   -0.000109   -0.000199
   -3    1    1   10    6   -0.000515   -0.001139
   -3    1    1   11    6   -0.001660    0.001371
   -3    1    1   12    6    0.000745    0.000350
   -3    1    1   13    6    0.001162    0.000302
   -3    1    1   14    6   -0.002347    0.000636
   -3    1    1   15    6    0.005829   -0.004498
   -3    1    1   16    6   -0.002037   -0.003446
   -3    1    1   17    6   -0.001923    0.000396
   -3    1    1   18    6   -0.002925    0.000684
   -3    1    1    1    7    0.000622    0.000632
   -3    1    1    2    7   -0.002149    0.000228
   -3    1    1    3    7    0.000702    0.000806
   -3    1    1    4    7   -0.001378    0.001240
   -3    1    1    5    7   -0.000270    0.000073
   -3    1    1    6    7   -0.000114   -0.000188
   -3    1    1    7    7   -0.000019    0.000130
   -3    1    1    8    7   -0.000210   -0.000363
   -3    1    1    9    7    0.000388   -0.000291
   -3    1    1   10    7    0.002722   -0.001179
   -3    1    1   11    7   -0.004485    0.002400
   -3    1    1   12    7    0.007613   -0.000293
   -3    1    1   13    7    0.001827    0.002244
   -3    1    1   14    7    0.002290   -0.002632
   -3    1    1   15    7    0.011715   -0.005737
   -3    1    1   16    7    0.006026    0.002040
   -3    1    1   17    7   -0.000527    0.001277
   -3    1    1   18    7   -0.003014    0.001189
   -3    1    1    1    8   -0.000969    0.002006
   -3    1    1    2    8    0.002120    0.002123
   -3    1    1    3    8    0.000866    0.000725
   -3    1    1    4    8    0.002574   -0.000437
   -3    1    1    5    8    0.000154   -0.001025
   -3    1    1    6    8   -0.000070   -0.000180
   -3    1    1    7    8    0.000332    0.000456
   -3    1    1    8    8    0.000092    0.000003
   -3    1    1    9    8   -0.000679    0.000196
   -3    1    1   10    8    0.000308   -0.006967
   -3    1    1   11    8   -0.000173    0.000960
   -3    1    1   12    8   -0.000036   -0.005375
   -3    1    1   13    8   -0.000979   -0.000145
   -3    1    1   14    8   -0.002339   -0.003625
   -3    1    1   15    8   -0.000872    0.002447
   -3    1    1   16    8    0.008207    0.002796
   -3    1    1   17    8    0.006648   -0.004850
   -3    1    1   18    8   -0.004296    0.000052
   -3    1    1    1    9   -0.001247    0.000865
   -3    1    1    2    9    0.000104    0.000177
   -3    1    1    3    9    0.000184    0.000918
   -3    1    1    4    9    0.000051    0.000780
   -3    1    1    5    9    0.000285    0.000014
   -3    1    1    6    9    0.000058   -0.000252
   -3    1    1    7    9   -0.000072    0.000071
   -3    1    1    8    9    0.000014   -0.000248
   -3    1    1    9    9    0.000359   -0.000013
   -3    1    1   10    9    0.001041    0.001249
   -3    1    1   11    9    0.000955   -0.002238
   -3    1    1   12    9   -0.001218    0.002290
   -3    1    1   13    9   -0.000865   -0.000061
   -3    1    1   14    9    0.001229    0.002236
   -3    1    1   15    9   -0.000280   -0.001073
   -3    1    1   16    9    0.003506    0.000449
   -3    1    1   17    9   -0.006357   -0.002878
   -3    1    1   18    9    0.003104   -0.001013
   -3    1    1    1   10   -0.029469    0.010297
   -3    1    1    2   10   -0.012550    0.006000
   -3    1    1    3   10   -0.000343    0.003172
   -3    1    1    4   10    0.032468   -0.004904
   -3    1    1    5   10    0.007081   -0.002968
   -3    1    1    6   10    0.001935   -0.001310
   -3    1    1    7   10   -0.005082   -0.001626
   -3    1    1    8   10   -0.004065   -0.001491
   -3    1    1    9   10   -0.007956    0.003480
   -3    1    1   10   10    0.021063    0.001645
   -3    1    1   11   10   -0.008725    0.002661
   -3    1    1   12   10    0.011209    0.003085
   -3    1    1   13   10   -0.008944    0.006897
   -3    1    1   14   10    0.012923   -0.002656
   -3    1    1   15   10   -0.002202    0.020064
   -3    1    1   16   10   -0.015779   -0.007636
   -3    1    1   17   10    0.001867   -0.003103
   -3    1    1   18   10   -0.007980    0.008244
   -3    1    1    1   11   -0.025490   -0.005888
   -3    1    1    2   11   -0.025683   -0.004157
   -3    1    1    3   11    0.002763   -0.001113
   -3    1    1    4   11   -0.008275   -0.003796
   -3    1    1    5   11   -0.006414    0.002453
   -3    1    1    6   11   -0.001877    0.000262
   -3    1    1    7   11   -0.004554   -0.000570
   -3    1    1    8   11    0.005134    0.007738
   -3    1    1    9   11   -0.000115   -0.000749
   -3    1    1   10   11   -0.010755   -0.005356
   -3    1    1   11   11    0.015786   -0.003565
   -3    1    1   12   11   -0.009556   -0.005860
   -3    1    1   13   11    0.011568   -0.006471
   -3    1    1   14   11   -0.008501   -0.001740
   -3    1    1   15   11    0.002769   -0.005631
   -3    1    1   16   11    0.005056    0.007526
   -3    1    1   17   11    0.000959    0.017082
   -3    1    1   18   11   -0.015934   -0.014795
   -3    1    1    1   12   -0.006410   -0.001848
   -3    1    1    2   12   -0.011706   -0.003220
   -3    1    1    3   12   -0.006053    0.006436
   -3    1    1    4   12   -0.012568    0.009474
   -3    1    1    5   12    0.007049   -0.001039
   -3    1    1    6   12    0.002615   -0.002523
   -3    1    1    7   12   -0.006311   -0.000156
   -3    1    1    8   12   -0.011127   -0.003425
   -3    1    1    9   12    0.001481    0.003288
   -3    1    1   10   12    0.024354    0.000432
   -3    1    1   11   12   -0.011998    0.007816
   -3    1    1   12   12    0.018402    0.003457
   -3    1    1   13   12   -0.000173    0.012277
   -3    1    1   14   12    0.022354   -0.006898
   -3    1    1   15   12   -0.009446    0.012252
   -3    1    1   16   12   -0.017533   -0.022455
   -3    1    1   17   12    0.004307   -0.018836
   -3    1    1   18   12    0.000630    0.008098
   -3    1    1    1   13    0.015862   -0.001393
   -3    1    1    2   13   -0.009014    0.000217
   -3    1    1    3   13   -0.011457   -0.000035
   -3    1    1    4   13   -0.031524    0.003293
   -3    1    1    5   13    0.000095   -0.002057
   -3    1    1    6   13   -0.000003   -0.001012
   -3    1    1    7   13   -0.002999    0.003421
   -3    1    1    8   13   -0.006586    0.001850
   -3    1    1    9   13    0.008392    0.001364
   -3    1    1   10   13    0.004142   -0.008843
   -3    1    1   11   13    0.005231    0.006758
   -3    1    1   12   13    0.007146   -0.003576
   -3    1    1   13   13    0.015366    0.009459
   -3    1    1   14   13    0.011393   -0.009268
   -3    1    1   15   13    0.001266   -0.001452
   -3    1    1   16   13    0.012740   -0.006093
   -3    1    1   17   13    0.010956   -0.000138
   -3    1    1   18   13    0.018975    0.004869
   -3    1    1    1   14    0.011523    0.001025
   -3    1    1    2   14    0.016988    0.012681
   -3    1    1    3   14   -0.002665   -0.004842
   -3    1    1    4   14    0.005668    0.010677
   -3    1    1    5   14    0.012246   -0.000906
   -3    1    1    6   14    0.000306    0.000491
   -3    1    1    7   14    0.001218   -0.000636
   -3    1    1    8   14   -0.005270   -0.010387
   -3    1    1    9   14   -0.000765   -0.000743
   -3    1    1   10   14    0.022008    0.013253
   -3    1    1   11   14   -0.017178   -0.001219
   -3    1    1   12   14    0.013336    0.010616
   -3    1    1   13   14   -0.008022    0.012367
   -3    1    1   14   14    0.026812    0.007711
   -3    1    1   15   14    0.031355    0.013445
   -3    1    1   16   14    0.004209   -0.015223
   -3    1    1   17   14    0.008070   -0.013285
   -3    1    1   18   14    0.002583    0.022867
   -3    1    1    1   15    0.015870    0.021674
   -3    1    1    2   15   -0.067547   -0.026571
   -3    1    1    3   15   -0.026619    0.004060
   -3    1    1    4   15    0.024300    0.000451
   -3    1    1    5   15    0.023082   -0.016847
   -3    1    1    6   15    0.010739   -0.002046
   -3    1    1    7   15   -0.020557   -0.001467
   -3    1    1    8   15   -0.019471   -0.016500
   -3    1    1    9   15    0.001528    0.018056
   -3    1    1   10   15    0.024706   -0.030516
   -3    1    1   11   15   -0.006907    0.016395
   -3    1    1   12   15    0.013112    0.006104
   -3    1    1   13   15   -0.004214    0.038010
   -3    1    1   14   15    0.017750   -0.008059
   -3    1    1   15   15   -0.123547   -0.041607
   -3    1    1   16   15    0.043683   -0.043860
   -3    1    1   17   15   -0.016039    0.004442
   -3    1    1   18   15    0.053515   -0.034011
   -3    1    1    1   16    0.019408   -0.015229
   -3    1    1    2   16    0.013740   -0.008824
   -3    1    1    3   16    0.028697    0.000225
   -3    1    1    4   16    0.045641   -0.007928
   -3    1    1    5   16   -0.023035   -0.001323
   -3    1    1    6   16   -0.005985   -0.003602
   -3    1    1    7   16    0.007367   -0.002688
   -3    1    1    8   16    0.014450    0.007164
   -3    1    1    9   16    0.006640    0.000049
   -3    1    1   10   16    0.001094   -0.009464
   -3    1    1   11   16    0.010441    0.034611
   -3    1    1   12   16    0.006758   -0.035893
   -3    1    1   13   16    0.012307    0.001929
   -3    1    1   14   16    0.013008   -0.009144
   -3    1    1   15   16    0.003794    0.014122
   -3    1    1   16   16   -0.094767   -0.023362
   -3    1    1   17   16    0.001287   -0.007845
   -3    1    1   18   16    0.010242    0.032836
   -3    1    1    1   17   -0.017353   -0.012016
   -3    1    1    2   17   -0.011770   -0.019493
   -3    1    1    3   17   -0.000935    0.014565
   -3    1    1    4   17    0.042340   -0.010837
   -3    1    1    5   17    0.014353   -0.015154
   -3    1    1    6   17    0.004956   -0.000924
   -3    1    1    7   17   -0.010608    0.000179
   -3    1    1    8   17   -0.016419   -0.001475
   -3    1    1    9   17   -0.009220    0.000388
   -3    1    1   10   17    0.014162   -0.025895
   -3    1    1   11   17   -0.013355   -0.002162
   -3    1    1   12   17    0.002820    0.012591
   -3    1    1   13   17   -0.013074    0.009887
   -3    1    1   14   17   -0.018397   -0.013744
   -3    1    1   15   17   -0.008697    0.001846
   -3    1    1   16   17    0.010461   -0.033258
   -3    1    1   17   17   -0.075451    0.050226
   -3    1    1   18   17    0.010915   -0.041746
   -3    1    1    1   18    0.003377    0.015189
   -3    1    1    2   18   -0.050559    0.029965
   -3    1    1    3   18    0.009490    0.012162
   -3    1    1    4   18   -0.022718    0.013700
   -3    1    1    5   18   -0.015804    0.004245
   -3    1    1    6   18    0.001037    0.000565
   -3    1    1    7   18   -0.004257    0.002430
   -3    1    1    8   18    0.006005    0.007949
   -3    1    1    9   18    0.007066   -0.004010
   -3    1    1   10   18   -0.028501    0.015369
   -3    1    1   11   18   -0.008362   -0.026761
   -3    1    1   12   18   -0.014432    0.020243
   -3    1    1   13   18   -0.014871   -0.021331
   -3    1    1   14   18   -0.018523    0.032144
   -3    1    1   15   18   -0.035790   -0.051721
   -3    1    1   16   18    0.018624    0.000298
   -3    1    1   17   18   -0.038023   -0.014202
   -3    1    1   18   18   -0.070168   -0.005579
   -2   -2    2    1    1    0.000822   -0.000000
   -2   -2    2    2    1    0.000782    0.000102
   -2   -2    2    3    1    0.000726    0.000262
   -2   -2    2    4    1   -0.003076    0.000279
   -2   -2    2    5    1    0.000058   -0.000817
   -2   -2    2    6    1    0.000000   -0.000067
   -2   -2    2    7    1   -0.000537   -0.000051
   -2   -2    2    8    1    0.000665    0.000335
   -2   -2    2    9    1    0.000294    0.000261
   -2   -2    2   10    1    0.000313   -0.001998
   -2   -2    2   11    1    0.003509   -0.001285
   -2   -2    2   12    1   -0.005391   -0.003473
   -2   -2    2   13    1    0.002826   -0.004807
   -2   -2    2   14    1   -0.004176   -0.005549
   -2   -2    2   15    1   -0.019091    0.007464
   -2   -2    2   16    1   -0.006090    0.000104
   -2   -2    2   17    1   -0.006261   -0.000186
   -2   -2    2   18    1    0.012206    0.007882
   -2   -2    2    1    2    0.000782   -0.000102
   -2   -2    2    2    2    0.003597   -0.000000
   -2   -2    2    3    2   -0.003883    0.001824
   -2   -2    2    4    2    0.001457    0.001129
   -2   -2    2    5    2    0.001426   -0.001197
   -2   -2    2    6    2    0.001096   -0.000560
   -2   -2    2    7    2    0.000899   -0.000116
   -2   -2    2    8    2    0.000937    0.000999
   -2   -2    2    9    2   -0.000243    0.000499
   -2   -2    2   10    2   -0.006324   -0.001689
   -2   -2    2   11    2    0.007009   -0.004077
   -2   -2    2   12    2   -0.010191   -0.003345
   -2   -2    2   13    2   -0.005255   -0.006904
   -2   -2    2   14    2   -0.011539    0.004649
   -2   -2    2   15    2   -0.027868    0.000753
   -2   -2    2   16    2    0.010477   -0.004576
   -2   -2    2   17    2   -0.004692   -0.007029
   -2   -2    2   18    2    0.019776    0.003446
   -2   -2    2    1    3    0.000726   -0.000262
   -2   -2    2    2    3   -0.003883   -0.001824
   -2   -2    2    3    3    0.000713    0.000000
   -2   -2    2    4    3   -0.001023   -0.000376
   -2   -2    2    5    3    0.000439   -0.000343
   -2   -2    2    6    3   -0.000818    0.000014
   -2   -2    2    7    3   -0.001338   -0.000873
   -2   -2    2    8    3    0.000119    0.000572
   -2   -2    2    9    3    0.000370   -0.000311
   -2   -2    2   10    3    0.001663    0.000473
   -2   -2    2   11    3    0.002220   -0.001561
   -2   -2    2   12    3   -0.005319    0.000576
   -2   -2    2   13    3    0.006395   -0.001593
   -2   -2    2   14    3    0.002135   -0.002255
   -2   -2    2   15    3    0.007912    0.002205
   -2   -2    2   16    3   -0.010420   -0.000709
   -2   -2    2   17    3   -0.009589   -0.000249
   -2   -2    2   18    3   -0.007722   -0.000896
   -2   -2    2    1    4   -0.003076   -0.000279
   -2   -2    2    2    4    0.001457   -0.001129
   -2   -2    2    3    4   -0.001023    0.000376
   -2   -2    2    4    4    0.002940    0.000000
   -2   -2    2    5    4    0.001400   -0.000158
   -2   -2    2    6    4    0.000814   -0.000386
   -2   -2    2    7    4   -0.000268   -0.000831
   -2   -2    2    8    4    0.000761    0.000962
   -2   -2    2    9    4   -0.000756    0.000053
   -2   -2    2   10    4   -0.003646    0.001468
   -2   -2    2   11    4    0.003316   -0.004912
   -2   -2    2   12    4   -0.008476    0.002565
   -2   -2    2   13    4   -0.001871   -0.001032
   -2   -2    2   14    4   -0.003751    0.008664
   -2   -2    2   15    4   -0.018514   -0.001399
   -2   -2    2   16    4   -0.005198    0.001480
   -2   -2    2   17    4   -0.010831   -0.006020
   -2   -2    2   18    4   -0.011083   -0.002573
   -2   -2    2    1    5    0.000058    0.000817
   -2   -2    2    2    5    0.001426    0.001197
   -2   -2    2    3    5    0.000439    0.000343
   -2   -2    2    4    5    0.001400    0.000158
   -2   -2    2    5    5   -0.000659    0.000000
   -2   -2    2    6    5   -0.000023   -0.000121
   -2   -2    2    7    5    0.000214    0.000256
   -2   -2    2    8    5    0.000173   -0.000054
   -2   -2    2    9    5   -0.000176    0.000038
   -2   -2    2   10    5    0.001851    0.000556
   -2   -2    2   11    5   -0.001183   -0.000571
   -2   -2    2   12    5    0.001144    0.003366
   -2   -2    2   13    5   -0.001360    0.002203
   -2   -2    2   14    5    0.000955    0.000305
   -2   -2    2   15    5   -0.001008    0.009056
   -2   -2    2   16    5   -0.002877    0.002811
   -2   -2    2   17    5    0.000612   -0.002290
   -2   -2    2   18    5   -0.009559   -0.007401
   -2   -2    2    1    6    0.000000    0.000067
   -2   -2    2    2    6    0.001096    0.000560
   -2   -2    2    3    6   -0.000818   -0.000014
   -2   -2    2    4    6    0.000814    0.000386
   -2   -2    2    5    6   -0.000023    0.000121
   -2   -2    2    6    6    0.000066    0.000000
   -2   -2    2    7    6    0.000388    0.000246
   -2   -2    2    8    6   -0.000096   -0.000077
   -2   -2    2    9    6   -0.000094   -0.000052
   -2   -2    2   10    6   -0.000109    0.000528
   -2   -2    2   11    6   -0.000970    0.000290
   -2   -2    2   12    6    0.002070    0.000461
   -2   -2    2   13    6   -0.001755    0.000812
   -2   -2    2   14    6    0.000505    0.001255
   -2   -2    2   15    6    0.000076   -0.001116
   -2   -2    2   16    6    0.006404    0.001952
   -2   -2    2   17    6    0.001111   -0.001696
   -2   -2    2   18    6    0.003310   -0.001302
   -2   -2    2    1    7   -0.000537    0.000051
   -2   -2    2    2    7    0.000899    0.000116
   -2   -2    2    3    7   -0.001338    0.000873
   -2   -2    2    4    7   -0.000268    0.000831
   -2   -2    2    5    7    0.000214   -0.000256
   -2   -2    2    6    7    0.000388   -0.000246
   -2   -2    2    7    7   -0.000128   -0.000000
   -2   -2    2    8    7    0.000222    0.000226
   -2   -2    2    9    7   -0.000053    0.000024
   -2   -2    2   10    7   -0.001636   -0.001247
   -2   -2    2   11    7    0.002144   -0.001196
   -2   -2    2   12    7   -0.002847   -0.000470
   -2   -2    2   13    7   -0.000722   -0.001327
   -2   -2    2   14    7   -0.003056    0.000348
   -2   -2    2   15    7   -0.002877   -0.000017
   -2   -2    2   16    7   -0.000872   -0.001374
   -2   -2    2   17    7    0.000296   -0.002072
   -2   -2    2   18    7    0.005000    0.000570
   -2   -2    2    1    8    0.000665   -0.000335
   -2   -2    2    2    8    0.000937   -0.000999
   -2   -2    2    3    8    0.000119   -0.000572
   -2   -2    2    4    8    0.000761   -0.000962
   -2   -2    2    5    8    0.000173    0.000054
   -2   -2    2    6    8   -0.000096    0.000077
   -2   -2    2    7    8    0.000222   -0.000226
   -2   -2    2    8    8   -0.000764    0.000000
   -2   -2    2    9    8    0.000027    0.000076
   -2   -2    2   10    8    0.000543    0.000654
   -2   -2    2   11    8   -0.001804    0.000953
   -2   -2    2   12    8    0.001096    0.000700
   -2   -2    2   13    8   -0.001118    0.000180
   -2   -2    2   14    8    0.000090   -0.000185
   -2   -2    2   15    8    0.001290    0.007565
   -2   -2    2   16    8    0.005317    0.000340
   -2   -2    2   17    8   -0.004387    0.000616
   -2   -2    2   18    8   -0.008156    0.004663
   -2   -2    2    1    9    0.000294   -0.000261
   -2   -2    2    2    9   -0.000243   -0.000499
   -2   -2    2    3    9    0.000370    0.000311
   -2   -2    2    4    9   -0.000756   -0.000053
   -2   -2    2    5    9   -0.000176   -0.000038
   -2   -2    2    6    9   -0.000094    0.000052
   -2   -2    2    7    9   -0.000053   -0.000024
   -2   -2    2    8    9    0.000027   -0.000076
   -2   -2    2    9    9   -0.000109   -0.000000
   -2   -2    2   10    9    0.000497   -0.000904
   -2   -2    2   11    9   -0.000162    0.001408
   -2   -2    2   12    9    0.001179   -0.000452
   -2   -2    2   13    9    0.000636    0.000058
   -2   -2    2   14    9   -0.000659   -0.002659
   -2   -2    2   15    9    0.001126    0.003250
   -2   -2    2   16    9   -0.001683   -0.001264
   -2   -2    2   17    9    0.002967    0.000153
   -2   -2    2   18    9    0.004559    0.000781
   -2   -2    2    1   10    0.000313    0.001998
   -2   -2    2    2   10   -0.006324    0.001689
   -2   -2    2    3   10    0.001663   -0.000473
   -2   -2    2    4   10   -0.003646   -0.001468
   -2   -2    2    5   10    0.001851   -0.000556
   -2   -2    2    6   10   -0.000109   -0.000528
   -2   -2    2    7   10   -0.001636    0.001247
   -2   -2    2    8   10    0.000543   -0.000654
   -2   -2    2    9   10    0.000497    0.000904
   -2   -2    2   10   10    0.003145   -0.000000
   -2   -2    2   11   10   -0.004859    0.000029
   -2   -2    2   12   10    0.004508    0.002390
   -2   -2    2   13   10    0.003305    0.004769
   -2   -2    2   14   10    0.002979   -0.000124
   -2   -2    2   15   10   -0.013855    0.003589
   -2   -2    2   16   10    0.009425   -0.004151
   -2   -2    2   17   10    0.007920    0.009764
   -2   -2    2   18   10   -0.008648   -0.003129
   -2   -2    2    1   11    0.003509    0.001285
   -2   -2    2    2   11    0.007009    0.004077
   -2   -2    2    3   11    0.002220    0.001561
   -2   -2    2    4   11    0.003316    0.004912
   -2   -2    2    5   11   -0.001183    0.000571
   -2   -2    2    6   11   -0.000970   -0.000290
   -2   -2    2    7   11    0.002144    0.001196
   -2   -2    2    8   11   -0.001804   -0.000953
   -2   -2    2    9   11   -0.000162   -0.001408
   -2   -2    2   10   11   -0.004859   -0.000029
   -2   -2    2   11   11    0.000853    0.000000
   -2   -2    2   12   11   -0.005553   -0.002193
   -2   -2    2   13   11   -0.005457   -0.006277
   -2   -2    2   14   11   -0.004713   -0.000837
   -2   -2    2   15   11   -0.008121    0.010537
   -2   -2    2   16   11   -0.008253   -0.004337
   -2   -2    2   17   11   -0.000631   -0.010824
   -2   -2    2   18   11   -0.000949    0.005378
   -2   -2    2    1   12   -0.005391    0.003473
   -2   -2    2    2   12   -0.010191    0.003345
   -2   -2    2    3   12   -0.005319   -0.000576
   -2   -2    2    4   12   -0.008476   -0.002565
   -2   -2    2    5   12    0.001144   -0.003366
   -2   -2    2    6   12    0.002070   -0.000461
   -2   -2    2    7   12   -0.002847    0.000470
   -2   -2    2    8   12    0.001096   -0.000700
   -2   -2    2    9   12    0.001179    0.000452
   -2   -2    2   10   12    0.004508   -0.002390
   -2   -2    2   11   12   -0.005553    0.002193
   -2   -2    2   12   12    0.014496    0.000000
   -2   -2    2   13   12    0.011131    0.003473
   -2   -2    2   14   12    0.013577   -0.009757
   -2   -2    2   15   12    0.001268   -0.006974
   -2   -2    2   16   12   -0.000067    0.017662
   -2   -2    2   17   12   -0.004663    0.015413
   -2   -2    2   18   12    0.009747   -0.001832
   -2   -2    2    1   13    0.002826    0.004807
   -2   -2    2    2   13   -0.005255    0.006904
   -2   -2    2    3   13    0.006395    0.001593
   -2   -2    2    4   13   -0.001871    0.001032
   -2   -2    2    5   13   -0.001360   -0.002203
   -2   -2    2    6   13   -0.001755   -0.000812
   -2   -2    2    7   13   -0.000722    0.001327
   -2   -2    2    8   13   -0.001118   -0.000180
   -2   -2    2    9   13    0.000636   -0.000058
   -2   -2    2   10   13    0.003305   -0.004769
   -2   -2    2   11   13   -0.005457    0.006277
   -2   -2    2   12   13    0.011131   -0.003473
   -2   -2    2   13   13    0.004563   -0.000000
   -2   -2    2   14   13    0.002477   -0.008914
   -2   -2    2   15   13   -0.006644    0.006267
   -2   -2    2   16   13   -0.014762    0.010393
   -2   -2    2   17   13   -0.001478    0.004618
   -2   -2    2   18   13    0.009057    0.000028
   -2   -2    2    1   14   -0.004176    0.005549
   -2   -2    2    2   14   -0.011539   -0.004649
   -2   -2    2    3   14    0.002135    0.002255
   -2   -2    2    4   14   -0.003751   -0.008664
   -2   -2    2    5   14    0.000955   -0.000305
   -2   -2    2    6   14    0.000505   -0.001255
   -2   -2    2    7   14   -0.003056   -0.000348
   -2   -2    2    8   14    0.000090    0.000185
   -2   -2    2    9   14   -0.000659    0.002659
   -2   -2    2   10   14    0.002979    0.000124
   -2   -2    2   11   14   -0.004713    0.000837
   -2   -2    2   12   14    0.013577    0.009757
   -2   -2    2   13   14    0.002477    0.008914
   -2   -2    2   14   14    0.004057    0.000000
   -2   -2    2   15   14   -0.013320   -0.006493
   -2   -2    2   16   14   -0.003101    0.001456
   -2   -2    2   17   14   -0.007001    0.014465
   -2   -2    2   18   14    0.005022   -0.004744
   -2   -2    2    1   15   -0.019091   -0.007464
   -2   -2    2    2   15   -0.027868   -0.000753
   -2   -2    2    3   15    0.007912   -0.002205
   -2   -2    2    4   15   -0.018514    0.001399
   -2   -2    2    5   15   -0.001008   -0.009056
   -2   -2    2    6   15    0.000076    0.001116
   -2   -2    2    7   15   -0.002877    0.000017
   -2   -2    2    8   15    0.001290   -0.007565
   -2   -2    2    9   15    0.001126   -0.003250
   -2   -2    2   10   15   -0.013855   -0.003589
   -2   -2    2   11   15   -0.008121   -0.010537
   -2   -2    2   12   15    0.001268    0.006974
   -2   -2    2   13   15   -0.006644   -0.006267
   -2   -2    2   14   15   -0.013320    0.006493
   -2   -2    2   15   15    0.084711   -0.000000
   -2   -2    2   16   15   -0.029595    0.000050
   -2   -2    2   17   15    0.035685    0.027007
   -2   -2    2   18   15    0.012769    0.002905
   -2   -2    2    1   16   -0.006090   -0.000104
   -2   -2    2    2   16    0.010477    0.004576
   -2   -2    2    3   16   -0.010420    0.000709
   -2   -2    2    4   16   -0.005198   -0.001480
   -2   -2    2    5   16   -0.002877   -0.002811
   -2   -2    2    6   16    0.006404   -0.001952
   -2   -2    2    7   16   -0.000872    0.001374
   -2   -2    2    8   16    0.005317   -0.000340
   -2   -2    2    9   16   -0.001683    0.001264
   -2   -2    2   10   16    0.009425    0.004151
   -2   -2    2   11   16   -0.008253    0.004337
   -2   -2    2   12   16   -0.000067   -0.017662
   -2   -2    2   13   16   -0.014762   -0.010393
   -2   -2    2   14   16   -0.003101   -0.001456
   -2   -2    2   15   16   -0.029595   -0.000050
   -2   -2    2   16   16    0.063248    0.000000
   -2   -2    2   17   16   -0.000349    0.023658
   -2   -2    2   18   16   -0.030323   -0.027218
   -2   -2    2    1   17   -0.006261    0.000186
   -2   -2    2    2   17   -0.004692    0.007029
   -2   -2    2    3   17   -0.009589    0.000249
   -2   -2    2    4   17   -0.010831    0.006020
   -2   -2    2    5   17    0.000612    0.002290
   -2   -2    2    6   17    0.001111    0.001696
   -2   -2    2    7   17    0.000296    0.002072
   -2   -2    2    8   17   -0.004387   -0.000616
   -2   -2    2    9   17    0.002967   -0.000153
   -2   -2    2   10   17    0.007920   -0.009764
   -2   -2    2   11   17   -0.000631    0.010824
   -2   -2    2   12   17   -0.004663   -0.015413
   -2   -2    2   13   17   -0.001478   -0.004618
   -2   -2    2   14   17   -0.007001   -0.014465
   -2   -2    2   15   17    0.035685   -0.027007
   -2   -2    2   16   17   -0.000349   -0.023658
   -2   -2    2   17   17    0.112188   -0.000000
   -2   -2    2   18   17    0.007004    0.009746
   -2   -2    2    1   18    0.012206   -0.007882
   -2   -2    2    2   18    0.019776   -0.003446
   -2   -2    2    3   18   -0.007722    0.000896
   -2   -2    2    4   18   -0.011083    0.002573
   -2   -2    2    5   18   -0.009559    0.007401
   -2   -2    2    6   18    0.003310    0.001302
   -2   -2    2    7   18    0.005000   -0.000570
   -2   -2    2    8   18   -0.008156   -0.004663
   -2   -2    2    9   18    0.004559   -0.000781
   -2   -2    2   10   18   -0.008648    0.003129
   -2   -2    2   11   18   -0.000949   -0.005378
   -2   -2    2   12   18    0.009747    0.001832
   -2   -2    2   13   18    0.009057   -0.000028
   -2   -2    2   14   18    0.005022    0.004744
   -2   -2    2   15   18    0.012769   -0.002905
   -2   -2    2   16   18   -0.030323    0.027218
   -2   -2    2   17   18    0.007004   -0.009746
   -2   -2    2   18   18    0.082417    0.000000
   -2   -1    1    1    1   -0.001572    0.001321
   -2   -1    1    2    1   -0.000777   -0.000874
   -2   -1    1    3    1   -0.003079   -0.002539
   -2   -1    1    4    1    0.001745   -0.006395
   -2   -1    1    5    1   -0.000673   -0.003234
   -2   -1    1    6    1    0.000407   -0.000183
   -2   -1    1    7    1   -0.000306    0.000257
   -2   -1    1    8    1    0.002939   -0.000448
   -2   -1    1    9    1    0.000085    0.001299
   -2   -1    1   10    1    0.004945   -0.005336
   -2   -1    1   11    1    0.000112    0.006709
   -2   -1    1   12    1   -0.004943   -0.008394
   -2   -1    1   13    1   -0.002999   -0.001420
   -2   -1    1   14    1   -0.005605   -0.007201
   -2   -1    1   15    1   -0.034027    0.031559
   -2   -1    1   16    1    0.019813   -0.000566
   -2   -1    1   17    1    0.008959   -0.005105
   -2   -1    1   18    1   -0.010765   -0.003522
   -2   -1    1    1    2   -0.010018   -0.001381
   -2   -1    1    2    2   -0.000999   -0.002765
   -2   -1    1    3    2   -0.003152   -0.002760
   -2   -1    1    4    2    0.000064   -0.003693
   -2   -1    1    5    2    0.000346   -0.000682
   -2   -1    1    6    2    0.001000    0.000834
   -2   -1    1    7    2   -0.002303   -0.000401
   -2   -1    1    8    2   -0.000039    0.000794
   -2   -1    1    9    2   -0.001111    0.000554
   -2   -1    1   10    2    0.002065    0.003936
   -2   -1    1   11    2    0.013883   -0.003858
   -2   -1    1   12    2   -0.012524   -0.001211
   -2   -1    1   13    2   -0.000977   -0.007116
   -2   -1    1   14    2    0.000950    0.004281
   -2   -1    1   15    2   -0.005084    0.014660
   -2   -1    1   16    2   -0.003784   -0.001625
   -2   -1    1   17    2   -0.002268    0.006847
   -2   -1    1   18    2   -0.006898   -0.004319
   -2   -1    1    1    3    0.001329    0.005138
   -2   -1    1    2    3    0.002205    0.004327
   -2   -1    1    3    3   -0.010288    0.001536
   -2   -1    1    4    3   -0.006509   -0.002811
   -2   -1    1    5    3   -0.001450   -0.004446
   -2   -1    1    6    3    0.002075   -0.001379
   -2   -1    1    7    3    0.000241    0.001662
   -2   -1    1    8    3    0.005783    0.000185
   -2   -1    1    9    3    0.000764    0.002256
   -2   -1    1   10    3    0.005433   -0.007890
   -2   -1    1   11    3   -0.002329    0.003675
   -2   -1    1   12    3   -0.005494   -0.006932
   -2   -1    1   13    3   -0.014926    0.000926
   -2   -1    1   14    3   -0.008271   -0.008572
   -2   -1    1   15    3   -0.052165    0.010672
   -2   -1    1   16    3    0.024035   -0.000016
   -2   -1    1   17    3    0.011408   -0.007411
   -2   -1    1   18    3   -0.004950   -0.005083
   -2   -1    1    1    4   -0.006593    0.001226
   -2   -1    1    2    4   -0.005454   -0.000042
   -2   -1    1    3    4   -0.010410   -0.002095
   -2   -1    1    4    4   -0.009126   -0.003236
   -2   -1    1    5    4   -0.000875   -0.001942
   -2   -1    1    6    4    0.002027   -0.000110
   -2   -1    1    7    4   -0.003183    0.000933
   -2   -1    1    8    4    0.003527    0.001773
   -2   -1    1    9    4   -0.000235    0.001716
   -2   -1    1   10    4   -0.001730    0.002563
   -2   -1    1   11    4    0.014662   -0.002723
   -2   -1    1   12    4   -0.024152   -0.002050
   -2   -1    1   13    4   -0.017197   -0.004259
   -2   -1    1   14    4   -0.008404    0.004749
   -2   -1    1   15    4   -0.057350    0.028258
   -2   -1    1   16    4    0.020047    0.001271
   -2   -1    1   17    4   -0.005301    0.003727
   -2   -1    1   18    4   -0.004645   -0.002628
   -2   -1    1    1    5    0.002395    0.000847
   -2   -1    1    2    5    0.000854   -0.000637
   -2   -1    1    3    5    0.003802   -0.001147
   -2   -1    1    4    5    0.001757   -0.003449
   -2   -1    1    5    5   -0.000126   -0.000082
   -2   -1    1    6    5   -0.000793    0.000334
   -2   -1    1    7    5    0.000273   -0.000130
   -2   -1    1    8    5    0.000130   -0.000021
   -2   -1    1    9    5   -0.000143    0.000533
   -2   -1    1   10    5    0.000149   -0.004942
   -2   -1    1   11    5   -0.001418    0.002540
   -2   -1    1   12    5    0.006645   -0.008787
   -2   -1    1   13    5    0.006218   -0.000296
   -2   -1    1   14    5    0.001039   -0.003619
   -2   -1    1   15    5    0.012557   -0.015267
   -2   -1    1   16    5   -0.004369    0.001082
   -2   -1    1   17    5    0.001242    0.004585
   -2   -1    1   18    5   -0.003629    0.004085
   -2   -1    1    1    6    0.000240   -0.001198
   -2   -1    1    2    6   -0.000105   -0.000435
   -2   -1    1    3    6    0.002404   -0.000611
   -2   -1    1    4    6    0.001052    0.000758
   -2   -1    1    5    6    0.000540    0.001041
   -2   -1    1    6    6   -0.000484    0.000428
   -2   -1    1    7    6    0.000086   -0.000304
   -2   -1    1    8    6   -0.001289    0.000022
   -2   -1    1    9    6   -0.000144   -0.000535
   -2   -1    1   10    6   -0.000309    0.002122
   -2   -1    1   11    6    0.001547   -0.002499
   -2   -1    1   12    6    0.002986    0.002290
   -2   -1    1   13    6    0.004824   -0.000525
   -2   -1    1   14    6    0.003314    0.002786
   -2   -1    1   15    6    0.023986   -0.009397
   -2   -1    1   16    6   -0.004715   -0.000255
   -2   -1    1   17    6   -0.007268    0.004823
   -2   -1    1   18    6    0.002408    0.003098
   -2   -1    1    1    7   -0.003396   -0.000632
   -2   -1    1    2    7    0.000838   -0.001197
   -2   -1    1    3    7   -0.002901   -0.002424
   -2   -1    1    4    7    0.000544   -0.002560
   -2   -1    1    5    7   -0.000033   -0.000339
   -2   -1    1    6    7    0.000634    0.000528
   -2   -1    1    7    7   -0.000424   -0.000179
   -2   -1    1    8    7    0.000317    0.000167
   -2   -1    1    9    7   -0.000593    0.000335
   -2   -1    1   10    7   -0.000828    0.001543
   -2   -1    1   11    7    0.004999    0.000198
   -2   -1    1   12    7   -0.005882    0.000014
   -2   -1    1   13    7   -0.000023   -0.000725
   -2   -1    1   14    7   -0.000924    0.002220
   -2   -1    1   15    7    0.002215    0.009339
   -2   -1    1   16    7   -0.000190   -0.000878
   -2   -1    1   17    7   -0.000542    0.001715
   -2   -1    1   18    7   -0.001941    0.000149
   -2   -1    1    1    8    0.000158   -0.000926
   -2   -1    1    2    8   -0.001148   -0.002182
   -2   -1    1    3    8   -0.002157   -0.001235
   -2   -1    1    4    8   -0.003521   -0.001599
   -2   -1    1    5    8    0.000173   -0.000159
   -2   -1    1    6    8    0.000559    0.000201
   -2   -1    1    7    8   -0.000316   -0.000527
   -2   -1    1    8    8    0.000872    0.000086
   -2   -1    1    9    8    0.000536    0.000280
   -2   -1    1   10    8   -0.000646   -0.003471
   -2   -1    1   11    8    0.005129    0.002150
   -2   -1    1   12    8   -0.008445   -0.008569
   -2   -1    1   13    8   -0.003815   -0.002420
   -2   -1    1   14    8   -0.003855   -0.001960
   -2   -1    1   15    8   -0.009748    0.014018
   -2   -1    1   16    8    0.000292   -0.003489
   -2   -1    1   17    8    0.004042    0.001341
   -2   -1    1   18    8    0.000965    0.006240
   -2   -1    1    1    9    0.000241   -0.000356
   -2   -1    1    2    9   -0.000002    0.000049
   -2   -1    1    3    9    0.000695   -0.000120
   -2   -1    1    4    9    0.001652    0.000185
   -2   -1    1    5    9    0.000045    0.000126
   -2   -1    1    6    9   -0.000186    0.000026
   -2   -1    1    7    9    0.000199   -0.000102
   -2   -1    1    8    9   -0.000426   -0.000251
   -2   -1    1    9    9    0.000074   -0.000255
   -2   -1    1   10    9   -0.001695   -0.000692
   -2   -1    1   11    9   -0.001479    0.001532
   -2   -1    1   12    9    0.003375   -0.000462
   -2   -1    1   13    9    0.002792    0.000403
   -2   -1    1   14    9   -0.001549   -0.000238
   -2   -1    1   15    9    0.009595   -0.000907
   -2   -1    1   16    9   -0.001462    0.002465
   -2   -1    1   17    9    0.000401   -0.007078
   -2   -1    1   18    9   -0.001426    0.000355
   -2   -1    1    1   10   -0.008565   -0.002538
   -2   -1    1    2   10   -0.014797    0.001443
   -2   -1    1    3   10    0.018301   -0.002329
   -2   -1    1    4   10    0.026215   -0.004863
   -2   -1    1    5   10    0.008232    0.000051
   -2   -1    1    6   10   -0.005673    0.003324
   -2   -1    1    7   10   -0.004322    0.001550
   -2   -1    1    8   10    0.005703    0.007098
   -2   -1    1    9   10   -0.006622   -0.001094
   -2   -1    1   10   10   -0.002463    0.003403
   -2   -1    1   11   10   -0.002716   -0.004911
   -2   -1    1   12   10   -0.012635    0.002862
   -2   -1    1   13   10   -0.012157   -0.007076
   -2   -1    1   14   10   -0.004324    0.008035
   -2   -1    1   15   10   -0.021611    0.003442
   -2   -1    1   16   10   -0.013144    0.000537
   -2   -1    1   17   10    0.008809   -0.017678
   -2   -1    1   18   10   -0.004722   -0.011481
   -2   -1    1    1   11   -0.002911    0.003545
   -2   -1    1    2   11    0.009199    0.004244
   -2   -1    1    3   11   -0.007086   -0.004742
   -2   -1    1    4   11   -0.003911   -0.005421
   -2   -1    1    5   11   -0.002024   -0.001141
   -2   -1    1    6   11    0.002452    0.000053
   -2   -1    1    7   11    0.004381   -0.000351
   -2   -1    1    8   11    0.000961   -0.002041
   -2   -1    1    9   11   -0.000775    0.001541
   -2   -1    1   10   11    0.004946    0.002000
   -2   -1    1   11   11   -0.010691    0.000121
   -2   -1    1   12   11    0.009450    0.010832
   -2   -1    1   13   11    0.005892    0.014306
   -2   -1    1   14   11    0.013327   -0.000110
   -2   -1    1   15   11    0.051202    0.018801
   -2   -1    1   16   11    0.002211    0.002317
   -2   -1    1   17   11   -0.005934    0.027388
   -2   -1    1   18   11   -0.011931    0.005099
   -2   -1    1    1   12   -0.000981   -0.002365
   -2   -1    1    2   12   -0.012680    0.005200
   -2   -1    1    3   12    0.013258   -0.003718
   -2   -1    1    4   12    0.015688    0.000657
   -2   -1    1    5   12    0.003305   -0.000919
   -2   -1    1    6   12   -0.002638    0.003825
   -2   -1    1    7   12   -0.005543    0.004161
   -2   -1    1    8   12    0.006459    0.008742
   -2   -1    1    9   12   -0.002221   -0.001912
   -2   -1    1   10   12   -0.004453    0.000051
   -2   -1    1   11   12    0.010498   -0.002679
   -2   -1    1   12   12   -0.012907   -0.011331
   -2   -1    1   13   12   -0.010735   -0.014717
   -2   -1    1   14   12   -0.020662    0.010126
   -2   -1    1   15   12   -0.050615   -0.023921
   -2   -1    1   16   12    0.004595    0.009591
   -2   -1    1   17   12    0.006166   -0.045579
   -2   -1    1   18   12    0.011933   -0.023980
   -2   -1    1    1   13   -0.001821    0.005940
   -2   -1    1    2   13    0.001326    0.008936
   -2   -1    1    3   13   -0.005060   -0.004802
   -2   -1    1    4   13   -0.002853   -0.004922
   -2   -1    1    5   13   -0.002012   -0.002207
   -2   -1    1    6   13    0.004157    0.000924
   -2   -1    1    7   13    0.000141    0.003027
   -2   -1    1    8   13    0.003816    0.001852
   -2   -1    1    9   13   -0.000103    0.000103
   -2   -1    1   10   13   -0.004818    0.008019
   -2   -1    1   11   13    0.000433   -0.011665
   -2   -1    1   12   13    0.002937    0.015688
   -2   -1    1   13   13    0.002305    0.003531
   -2   -1    1   14   13    0.002874    0.013931
   -2   -1    1   15   13    0.001053    0.009789
   -2   -1    1   16   13   -0.001287    0.021183
   -2   -1    1   17   13   -0.007036   -0.006093
   -2   -1    1   18   13   -0.000565   -0.014160
   -2   -1    1    1   14   -0.008485   -0.006852
   -2   -1    1    2   14   -0.011775   -0.003467
   -2   -1    1    3   14    0.010649    0.007242
   -2   -1    1    4   14    0.016326    0.012446
   -2   -1    1    5   14    0.006537    0.004213
   -2   -1    1    6   14   -0.002572    0.000730
   -2   -1    1    7   14   -0.005454   -0.000569
   -2   -1    1    8   14    0.000509    0.005666
   -2   -1    1    9   14   -0.002670   -0.005111
   -2   -1    1   10   14   -0.007960    0.000664
   -2   -1    1   11   14    0.011143   -0.005239
   -2   -1    1   12   14   -0.010600    0.001309
   -2   -1    1   13   14    0.000710   -0.011187
   -2   -1    1   14   14   -0.012811    0.006618
   -2   -1    1   15   14   -0.012802   -0.005851
   -2   -1    1   16   14   -0.019751   -0.002730
   -2   -1    1   17   14    0.017076   -0.022228
   -2   -1    1   18   14    0.017339   -0.016293
   -2   -1    1    1   15    0.018660    0.007158
   -2   -1    1    2   15    0.015422    0.023525
   -2   -1    1    3   15    0.004752   -0.006692
   -2   -1    1    4   15   -0.014439    0.003855
   -2   -1    1    5   15   -0.013553   -0.002076
   -2   -1    1    6   15    0.001505    0.005012
   -2   -1    1    7   15    0.002066    0.005501
   -2   -1    1    8   15   -0.001185   -0.002766
   -2   -1    1    9   15    0.002478   -0.000667
   -2   -1    1   10   15   -0.009361    0.009700
   -2   -1    1   11   15   -0.014994   -0.006986
   -2   -1    1   12   15    0.002533   -0.006709
   -2   -1    1   13   15   -0.008458   -0.007817
   -2   -1    1   14   15   -0.001673    0.006554
   -2   -1    1   15   15    0.004617   -0.042410
   -2   -1    1   16   15    0.034149    0.005133
   -2   -1    1   17   15   -0.015673    0.001088
   -2   -1    1   18   15    0.021887    0.002120
   -2   -1    1    1   16   -0.005702   -0.017132
   -2   -1    1    2   16    0.002778    0.002970
   -2   -1    1    3   16    0.009240   -0.016279
   -2   -1    1    4   16    0.001279   -0.020087
   -2   -1    1    5   16    0.000315   -0.001115
   -2   -1    1    6   16    0.002106    0.008407
   -2   -1    1    7   16    0.001217    0.006685
   -2   -1    1    8   16    0.004335   -0.000561
   -2   -1    1    9   16   -0.007522    0.000820
   -2   -1    1   10   16   -0.005051    0.016679
   -2   -1    1   11   16   -0.000089   -0.013764
   -2   -1    1   12   16   -0.020551    0.019000
   -2   -1    1   13   16   -0.013542    0.005465
   -2   -1    1   14   16    0.010243    0.036581
   -2   -1    1   15   16   -0.060568    0.050191
   -2   -1    1   16   16   -0.048688    0.001399
   -2   -1    1   17   16    0.011636    0.014227
   -2   -1    1   18   16    0.024470    0.001029
   -2   -1    1    1   17   -0.002839   -0.002187
   -2   -1    1    2   17   -0.026682    0.014795
   -2   -1    1    3   17    0.032606   -0.009425
   -2   -1    1    4   17    0.031470   -0.001243
   -2   -1    1    5   17    0.010128   -0.000750
   -2   -1    1    6   17   -0.008720    0.004952
   -2   -1    1    7   17   -0.002759    0.001999
   -2   -1    1    8   17   -0.001774    0.002400
   -2   -1    1    9   17   -0.005583   -0.002239
   -2   -1    1   10   17    0.005195    0.011248
   -2   -1    1   11   17   -0.008434   -0.000554
   -2   -1    1   12   17   -0.002363    0.011008
   -2   -1    1   13   17   -0.006375    0.002762
   -2   -1    1   14   17    0.010782    0.003373
   -2   -1    1   15   17    0.018394   -0.047559
   -2   -1    1   16   17   -0.037081   -0.000611
   -2   -1    1   17   17   -0.010919    0.003726
   -2   -1    1   18   17   -0.050282   -0.022559
   -2   -1    1    1   18    0.006351   -0.004160
   -2   -1    1    2   18    0.000989   -0.008040
   -2   -1    1    3   18   -0.009464    0.005061
   -2   -1    1    4   18   -0.008909   -0.000153
   -2   -1    1    5   18   -0.010580    0.009578
   -2   -1    1    6   18    0.002252   -0.003113
   -2   -1    1    7   18   -0.001984   -0.005189
   -2   -1    1    8   18   -0.006360   -0.010199
   -2   -1    1    9   18    0.002284   -0.003842
   -2   -1    1   10   18    0.021764   -0.014377
   -2   -1    1   11   18    0.004055    0.009634
   -2   -1    1   12   18   -0.004820   -0.012594
   -2   -1    1   13   18    0.011619   -0.010655
   -2   -1    1   14   18    0.000162   -0.042294
   -2   -1    1   15   18    0.021845   -0.016611
   -2   -1    1   16   18   -0.031238   -0.021687
   -2   -1    1   17   18    0.052085    0.012315
   -2   -1    1   18   18    0.023884    0.038087
   -2   -1    2    1    1   -0.007055   -0.006964
   -2   -1    2    2    1   -0.004804    0.003400
   -2   -1    2    3    1    0.005039   -0.006329
   -2   -1    2    4    1    0.006830    0.000757
   -2   -1    2    5    1    0.001865   -0.001106
   -2   -1    2    6    1   -0.001505    0.003185
   -2   -1    2    7    1   -0.001009    0.000382
   -2   -1    2    8    1    0.002078   -0.000062
   -2   -1    2    9    1   -0.001240   -0.000790
   -2   -1    2   10    1   -0.000546   -0.000501
   -2   -1    2   11    1   -0.001861   -0.001666
   -2   -1    2   12    1   -0.001949    0.001612
   -2   -1    2   13    1   -0.000340   -0.000439
   -2   -1    2   14    1   -0.000113    0.003719
   -2   -1    2   15    1    0.001833    0.003905
   -2   -1    2   16    1   -0.023574    0.016230
   -2   -1    2   17    1    0.006351   -0.002456
   -2   -1    2   18    1    0.017523    0.000146
   -2   -1    2    1    2    0.003027   -0.005311
   -2   -1    2    2    2   -0.002132    0.000925
   -2   -1    2    3    2    0.011342    0.000621
   -2   -1    2    4    2    0.002943    0.005758
   -2   -1    2    5    2   -0.000179   -0.000455
   -2   -1    2    6    2   -0.003318    0.000419
   -2   -1    2    7    2   -0.000999    0.000238
   -2   -1    2    8    2   -0.000150    0.000071
   -2   -1    2    9    2    0.000173   -0.002399
   -2   -1    2   10    2   -0.004551   -0.001503
   -2   -1    2   11    2   -0.006406    0.002742
   -2   -1    2   12    2   -0.005962   -0.004206
   -2   -1    2   13    2   -0.000608   -0.004008
   -2   -1    2   14    2   -0.002871   -0.002413
   -2   -1    2   15    2    0.008146   -0.007971
   -2   -1    2   16    2    0.000792    0.003811
   -2   -1    2   17    2   -0.008618   -0.007657
   -2   -1    2   18    2   -0.001636   -0.012507
   -2   -1    2    1    3   -0.000829    0.001429
   -2   -1    2    2    3    0.001424   -0.002199
   -2   -1    2    3    3   -0.002112    0.000429
   -2   -1    2    4    3   -0.004557   -0.001248
   -2   -1    2    5    3   -0.001945   -0.001590
   -2   -1    2    6    3    0.000461   -0.000538
   -2   -1    2    7    3    0.000632   -0.001313
   -2   -1    2    8    3    0.002647   -0.000210
   -2   -1    2    9    3   -0.000220    0.000563
   -2   -1    2   10    3   -0.001008   -0.002434
   -2   -1    2   11    3    0.008320   -0.003117
   -2   -1    2   12    3   -0.009139    0.000206
   -2   -1    2   13    3   -0.006380    0.000409
   -2   -1    2   14    3   -0.006478    0.004486
   -2   -1    2   15    3   -0.001246    0.008304
   -2   -1    2   16    3   -0.016650    0.002175
   -2   -1    2   17    3   -0.001110   -0.010300
   -2   -1    2   18    3    0.011996    0.004512
   -2   -1    2    1    4    0.006043    0.001686
   -2   -1    2    2    4   -0.002972   -0.005071
   -2   -1    2    3    4    0.000646    0.009005
   -2   -1    2    4    4   -0.008717    0.006894
   -2   -1    2    5    4   -0.002752   -0.001685
   -2   -1    2    6    4   -0.000709   -0.003716
   -2   -1    2    7    4   -0.000273   -0.001797
   -2   -1    2    8    4   -0.000111   -0.000817
   -2   -1    2    9    4    0.001423   -0.001625
   -2   -1    2   10    4   -0.004728   -0.001874
   -2   -1    2   11    4    0.001263    0.001981
   -2   -1    2   12    4   -0.008793   -0.004151
   -2   -1    2   13    4   -0.004247   -0.004184
   -2   -1    2   14    4   -0.011845   -0.001704
   -2   -1    2   15    4    0.003564   -0.005476
   -2   -1    2   16    4    0.015593   -0.004310
   -2   -1    2   17    4    0.000646   -0.013168
   -2   -1    2   18    4   -0.009394   -0.006330
   -2   -1    2    1    5   -0.002353    0.001822
   -2   -1    2    2    5    0.000833    0.001276
   -2   -1    2    3    5    0.000646   -0.000446
   -2   -1    2    4    5    0.003689    0.000796
   -2   -1    2    5    5    0.000448    0.000107
   -2   -1    2    6    5    0.000089    0.000014
   -2   -1    2    7    5    0.000135    0.000224
   -2   -1    2    8    5   -0.000319   -0.000045
   -2   -1    2    9    5   -0.000806    0.000044
   -2   -1    2   10    5    0.002016    0.002048
   -2   -1    2   11    5   -0.003304   -0.000603
   -2   -1    2   12    5    0.004139    0.004447
   -2   -1    2   13    5   -0.000762    0.001284
   -2   -1    2   14    5    0.002221    0.000653
   -2   -1    2   15    5   -0.001295    0.008953
   -2   -1    2   16    5    0.000386    0.004900
   -2   -1    2   17    5   -0.003419    0.001662
   -2   -1    2   18    5   -0.000810    0.002641
   -2   -1    2    1    6   -0.000030   -0.000005
   -2   -1    2    2    6   -0.000783    0.000470
   -2   -1    2    3    6    0.000953    0.000438
   -2   -1    2    4    6    0.001037    0.000815
   -2   -1    2    5    6    0.000326    0.000347
   -2   -1    2    6    6   -0.000211   -0.000107
   -2   -1    2    7    6   -0.000428    0.000338
   -2   -1    2    8    6   -0.000619    0.000063
   -2   -1    2    9    6   -0.000025   -0.000128
   -2   -1    2   10    6   -0.000009   -0.000591
   -2   -1    2   11    6   -0.000177    0.000493
   -2   -1    2   12    6    0.001231   -0.000725
   -2   -1    2   13    6    0.002223    0.000061
   -2   -1    2   14    6    0.000847   -0.001738
   -2   -1    2   15    6   -0.001016   -0.004135
   -2   -1    2   16    6    0.003346   -0.001983
   -2   -1    2   17    6   -0.003342   -0.000699
   -2   -1    2   18    6   -0.003101   -0.000676
   -2   -1    2    1    7    0.001183   -0.002774
   -2   -1    2    2    7   -0.000297    0.000814
   -2   -1    2    3    7    0.002973    0.000007
   -2   -1    2    4    7    0.001100    0.002992
   -2   -1    2    5    7    0.000242   -0.000011
   -2   -1    2    6    7   -0.001044    0.000220
   -2   -1    2    7    7   -0.000147    0.000089
   -2   -1    2    8    7   -0.000030    0.000118
   -2   -1    2    9    7    0.000145   -0.000968
   -2   -1    2   10    7   -0.000624    0.000815
   -2   -1    2   11    7   -0.002411    0.000245
   -2   -1    2   12    7   -0.001251   -0.000084
   -2   -1    2   13    7   -0.000667   -0.000849
   -2   -1    2   14    7   -0.000031    0.000796
   -2   -1    2   15    7    0.005864   -0.000819
   -2   -1    2   16    7    0.002767    0.003860
   -2   -1    2   17    7   -0.005285   -0.003991
   -2   -1    2   18    7    0.003173   -0.005901
   -2   -1    2    1    8   -0.000002    0.000397
   -2   -1    2    2    8    0.003436    0.000006
   -2   -1    2    3    8   -0.000213   -0.001834
   -2   -1    2    4    8    0.002394   -0.001349
   -2   -1    2    5    8   -0.000299   -0.000050
   -2   -1    2    6    8    0.000054    0.000387
   -2   -1    2    7    8    0.000489   -0.000119
   -2   -1    2    8    8    0.000497   -0.000169
   -2   -1    2    9    8   -0.000459    0.000269
   -2   -1    2   10    8    0.002146   -0.000426
   -2   -1    2   11    8   -0.002388    0.000445
   -2   -1    2   12    8    0.004505    0.002383
   -2   -1    2   13    8    0.000758    0.002817
   -2   -1    2   14    8    0.002363   -0.000091
   -2   -1    2   15    8    0.012190    0.002734
   -2   -1    2   16    8   -0.007842    0.006454
   -2   -1    2   17    8    0.002569    0.000710
   -2   -1    2   18    8    0.003871    0.003308
   -2   -1    2    1    9   -0.001043   -0.001171
   -2   -1    2    2    9   -0.000030    0.001403
   -2   -1    2    3    9    0.000671   -0.003075
   -2   -1    2    4    9    0.001756   -0.001508
   -2   -1    2    5    9    0.000851    0.000102
   -2   -1    2    6    9   -0.000156    0.001125
   -2   -1    2    7    9    0.000033    0.000318
   -2   -1    2    8    9    0.000316    0.000150
   -2   -1    2    9    9   -0.000201    0.000243
   -2   -1    2   10    9    0.001454    0.000403
   -2   -1    2   11    9   -0.001174    0.000380
   -2   -1    2   12    9    0.002358   -0.000261
   -2   -1    2   13    9    0.001120    0.001733
   -2   -1    2   14    9    0.003752    0.001079
   -2   -1    2   15    9   -0.000541   -0.000259
   -2   -1    2   16    9   -0.002051    0.000928
   -2   -1    2   17    9    0.000519    0.004146
   -2   -1    2   18    9    0.001130    0.000087
   -2   -1    2    1   10    0.009891    0.006243
   -2   -1    2    2   10   -0.004006    0.008480
   -2   -1    2    3   10    0.004523    0.000659
   -2   -1    2    4   10   -0.008978   -0.009503
   -2   -1    2    5   10    0.000900   -0.002370
   -2   -1    2    6   10    0.000244    0.001305
   -2   -1    2    7   10    0.001754    0.001917
   -2   -1    2    8   10    0.003005    0.003880
   -2   -1    2    9   10    0.003213    0.002245
   -2   -1    2   10   10   -0.003188    0.003114
   -2   -1    2   11   10    0.005800   -0.003335
   -2   -1    2   12   10   -0.008313    0.000813
   -2   -1    2   13   10   -0.001514   -0.000785
   -2   -1    2   14   10    0.000101    0.002204
   -2   -1    2   15   10   -0.015899    0.010348
   -2   -1    2   16   10    0.003137   -0.016876
   -2   -1    2   17   10   -0.016103   -0.015003
   -2   -1    2   18   10   -0.000249    0.012713
   -2   -1    2    1   11    0.010297   -0.005019
   -2   -1    2    2   11    0.005799    0.000029
   -2   -1    2    3   11   -0.001859    0.001133
   -2   -1    2    4   11   -0.004394    0.007940
   -2   -1    2    5   11   -0.001190    0.001638
   -2   -1    2    6   11   -0.001128   -0.000791
   -2   -1    2    7   11   -0.001178   -0.001926
   -2   -1    2    8   11   -0.002271    0.000800
   -2   -1    2    9   11    0.002530   -0.001218
   -2   -1    2   10   11    0.004761    0.002219
   -2   -1    2   11   11   -0.015011   -0.001015
   -2   -1    2   12   11    0.004602    0.001806
   -2   -1    2   13   11   -0.007108   -0.002084
   -2   -1    2   14   11   -0.002797    0.000085
   -2   -1    2   15   11    0.031378    0.024786
   -2   -1    2   16   11    0.007648    0.011423
   -2   -1    2   17   11   -0.008211    0.002810
   -2   -1    2   18   11    0.004231   -0.014113
   -2   -1    2    1   12   -0.001085    0.011551
   -2   -1    2    2   12    0.003130    0.008102
   -2   -1    2    3   12    0.012998    0.001295
   -2   -1    2    4   12    0.000726   -0.009060
   -2   -1    2    5   12   -0.002270   -0.004709
   -2   -1    2    6   12   -0.001756    0.000310
   -2   -1    2    7   12    0.008190    0.002262
   -2   -1    2    8   12    0.007828   -0.002518
   -2   -1    2    9   12   -0.001445    0.001017
   -2   -1    2   10   12   -0.011759   -0.000210
   -2   -1    2   11   12    0.025645   -0.010607
   -2   -1    2   12   12   -0.019236    0.005031
   -2   -1    2   13   12    0.003511   -0.004254
   -2   -1    2   14   12   -0.012231    0.008265
   -2   -1    2   15   12   -0.051291    0.006331
   -2   -1    2   16   12   -0.024708   -0.013239
   -2   -1    2   17   12   -0.022240   -0.041345
   -2   -1    2   18   12    0.010784    0.031177
   -2   -1    2    1   13    0.000483    0.008577
   -2   -1    2    2   13    0.000103    0.001796
   -2   -1    2    3   13    0.005215    0.000762
   -2   -1    2    4   13    0.005367   -0.000817
   -2   -1    2    5   13   -0.002570    0.001824
   -2   -1    2    6   13   -0.000063   -0.002125
   -2   -1    2    7   13    0.000059    0.000105
   -2   -1    2    8   13    0.002652   -0.003643
   -2   -1    2    9   13   -0.001574    0.002187
   -2   -1    2   10   13   -0.003333    0.001722
   -2   -1    2   11   13   -0.004481   -0.004941
   -2   -1    2   12   13   -0.005407    0.008163
   -2   -1    2   13   13   -0.003307   -0.001803
   -2   -1    2   14   13   -0.001190    0.000352
   -2   -1    2   15   13   -0.015429    0.014700
   -2   -1    2   16   13   -0.013939    0.024890
   -2   -1    2   17   13   -0.000269   -0.019619
   -2   -1    2   18   13    0.011578    0.009152
   -2   -1    2    1   14   -0.002337    0.015737
   -2   -1    2    2   14   -0.003998   -0.000530
   -2   -1    2    3   14    0.006914    0.008917
   -2   -1    2    4   14    0.008057   -0.010570
   -2   -1    2    5   14   -0.002476    0.000877
   -2   -1    2    6   14    0.000100   -0.001429
   -2   -1    2    7   14    0.000349    0.001802
   -2   -1    2    8   14    0.001136    0.003609
   -2   -1    2    9   14   -0.003168    0.003640
   -2   -1    2   10   14   -0.004243   -0.000301
   -2   -1    2   11   14    0.010600   -0.000774
   -2   -1    2   12   14   -0.012434   -0.003301
   -2   -1    2   13   14    0.003696   -0.000710
   -2   -1    2   14   14    0.004561   -0.003164
   -2   -1    2   15   14   -0.032507   -0.007699
   -2   -1    2   16   14    0.006220   -0.013960
   -2   -1    2   17   14    0.008342   -0.015852
   -2   -1    2   18   14   -0.011619    0.013862
   -2   -1    2    1   15    0.002014    0.006069
   -2   -1    2    2   15   -0.013263    0.007275
   -2   -1    2    3   15   -0.025619   -0.013298
   -2   -1    2    4   15    0.016982    0.005282
   -2   -1    2    5   15    0.005192   -0.000542
   -2   -1    2    6   15    0.017947    0.006688
   -2   -1    2    7   15    0.000785    0.002303
   -2   -1    2    8   15    0.002268    0.001598
   -2   -1    2    9   15   -0.002715    0.001554
   -2   -1    2   10   15    0.005936   -0.000707
   -2   -1    2   11   15   -0.008274   -0.006351
   -2   -1    2   12   15   -0.003454    0.004671
   -2   -1    2   13   15    0.000472    0.007465
   -2   -1    2   14   15    0.020328   -0.000211
   -2   -1    2   15   15   -0.041674    0.003904
   -2   -1    2   16   15    0.007861   -0.032594
   -2   -1    2   17   15    0.022654    0.050524
   -2   -1    2   18   15   -0.006202    0.030637
   -2   -1    2    1   16    0.009096   -0.015147
   -2   -1    2    2   16    0.021372    0.010373
   -2   -1    2    3   16   -0.010845   -0.011964
   -2   -1    2    4   16   -0.024624   -0.000023
   -2   -1    2    5   16   -0.005384   -0.004758
   -2   -1    2    6   16    0.004552    0.006703
   -2   -1    2    7   16    0.011761   -0.003492
   -2   -1    2    8   16   -0.008168   -0.011272
   -2   -1    2    9   16    0.002152   -0.004275
   -2   -1    2   10   16   -0.020439    0.001001
   -2   -1    2   11   16   -0.001413    0.008015
   -2   -1    2   12   16    0.018396   -0.001172
   -2   -1    2   13   16    0.026079   -0.009333
   -2   -1    2   14   16   -0.005017   -0.010889
   -2   -1    2   15   16   -0.007067    0.052032
   -2   -1    2   16   16   -0.019280   -0.026158
   -2   -1    2   17   16   -0.038953    0.049453
   -2   -1    2   18   16    0.004606    0.012635
   -2   -1    2    1   17    0.000858    0.002004
   -2   -1    2    2   17   -0.010830   -0.008235
   -2   -1    2    3   17   -0.001508    0.001537
   -2   -1    2    4   17    0.001675   -0.017937
   -2   -1    2    5   17    0.004455    0.005394
   -2   -1    2    6   17    0.002480    0.000719
   -2   -1    2    7   17   -0.000900   -0.001741
   -2   -1    2    8   17    0.001186    0.001048
   -2   -1    2    9   17    0.000187    0.004153
   -2   -1    2   10   17    0.029888    0.013131
   -2   -1    2   11   17   -0.013014   -0.008514
   -2   -1    2   12   17    0.017478    0.014230
   -2   -1    2   13   17   -0.009397    0.010707
   -2   -1    2   14   17    0.018537    0.004865
   -2   -1    2   15   17   -0.001271    0.011408
   -2   -1    2   16   17    0.027980   -0.019731
   -2   -1    2   17   17    0.020737    0.035109
   -2   -1    2   18   17   -0.009605   -0.017125
   -2   -1    2    1   18   -0.007364    0.000763
   -2   -1    2    2   18    0.005425    0.011545
   -2   -1    2    3   18   -0.000898   -0.012312
   -2   -1    2    4   18    0.018157   -0.006054
   -2   -1    2    5   18    0.001645   -0.002467
   -2   -1    2    6   18   -0.000313    0.005128
   -2   -1    2    7   18    0.000458    0.005348
   -2   -1    2    8   18   -0.011122   -0.006952
   -2   -1    2    9   18    0.004784   -0.003274
   -2   -1    2   10   18    0.001686    0.005988
   -2   -1    2   11   18   -0.025566    0.004742
   -2   -1    2   12   18    0.044606    0.011633
   -2   -1    2   13   18    0.014255    0.007672
   -2   -1    2   14   18    0.026371    0.008493
   -2   -1    2   15   18    0.042035   -0.004026
   -2   -1    2   16   18    0.003527    0.053074
   -2   -1    2   17   18    0.013373    0.014818
   -2   -1    2   18   18    0.006280   -0.016465
   -2    0    0    1    1    0.003256    0.000000
   -2    0    0    2    1    0.004131   -0.000280
   -2    0    0    3    1    0.007236    0.007904
   -2    0    0    4    1   -0.008732    0.003808
   -2    0    0    5    1   -0.002833   -0.001176
   -2    0    0    6    1   -0.000551   -0.002297
   -2    0    0    7    1    0.002150   -0.000353
   -2    0    0    8    1   -0.003179    0.000214
   -2    0    0    9    1    0.001596   -0.001218
   -2    0    0   10    1    0.025911   -0.010575
   -2    0    0   11    1    0.013068    0.016512
   -2    0    0   12    1   -0.018638   -0.037502
   -2    0    0   13    1   -0.014149   -0.011131
   -2    0    0   14    1   -0.011431   -0.019140
   -2    0    0   15    1    0.003646    0.002505
   -2    0    0   16    1   -0.001854    0.026123
   -2    0    0   17    1   -0.001644   -0.021659
   -2    0    0   18    1   -0.007179   -0.000850
   -2    0    0    1    2    0.004131    0.000280
   -2    0    0    2    2   -0.005709    0.000000
   -2    0    0    3    2   -0.002723    0.001484
   -2    0    0    4    2    0.005251    0.001875
   -2    0    0    5    2    0.003918   -0.003604
   -2    0    0    6    2   -0.002571   -0.000289
   -2    0    0    7    2    0.000552    0.000196
   -2    0    0    8    2    0.007084    0.000899
   -2    0    0    9    2    0.000900   -0.001067
   -2    0    0   10    2   -0.032924    0.018030
   -2    0    0   11    2    0.026582   -0.024928
   -2    0    0   12    2   -0.005526    0.015124
   -2    0    0   13    2    0.014256   -0.004863
   -2    0    0   14    2   -0.015847    0.040382
   -2    0    0   15    2    0.066244    0.007601
   -2    0    0   16    2    0.011417   -0.012035
   -2    0    0   17    2   -0.005264    0.017631
   -2    0    0   18    2   -0.004958    0.001617
   -2    0    0    1    3    0.007236   -0.007904
   -2    0    0    2    3   -0.002723   -0.001484
   -2    0    0    3    3    0.084374    0.000000
   -2    0    0    4    3    0.064946   -0.005899
   -2    0    0    5    3   -0.000737   -0.000450
   -2    0    0    6    3   -0.026471    0.002374
   -2    0    0    7    3    0.000624   -0.000572
   -2    0    0    8    3    0.000345   -0.001084
   -2    0    0    9    3   -0.015304   -0.000891
   -2    0    0   10    3    0.048979   -0.039352
   -2    0    0   11    3   -0.041386    0.047277
   -2    0    0   12    3    0.013461   -0.057612
   -2    0    0   13    3    0.026507   -0.006897
   -2    0    0   14    3   -0.008977   -0.054430
   -2    0    0   15    3   -0.060388    0.018305
   -2    0    0   16    3   -0.034700    0.025043
   -2    0    0   17    3   -0.036724   -0.039116
   -2    0    0   18    3   -0.006080   -0.005865
   -2    0    0    1    4   -0.008732   -0.003808
   -2    0    0    2    4    0.005251   -0.001875
   -2    0    0    3    4    0.064946    0.005899
   -2    0    0    4    4    0.094931    0.000000
   -2    0    0    5    4    0.000028    0.001669
   -2    0    0    6    4   -0.021925    0.000034
   -2    0    0    7    4    0.004163   -0.000380
   -2    0    0    8    4    0.000015   -0.001871
   -2    0    0    9    4   -0.025291   -0.001204
   -2    0    0   10    4    0.105167   -0.032587
   -2    0    0   11    4    0.000074    0.035438
   -2    0    0   12    4   -0.031657   -0.070709
   -2    0    0   13    4    0.069230   -0.009025
   -2    0    0   14    4    0.042250   -0.068787
   -2    0    0   15    4   -0.053659    0.003689
   -2    0    0   16    4   -0.043027    0.025245
   -2    0    0   17    4   -0.031166   -0.047282
   -2    0    0   18    4    0.013165   -0.009090
   -2    0    0    1    5   -0.002833    0.001176
   -2    0    0    2    5    0.003918    0.003604
   -2    0    0    3    5   -0.000737    0.000450
   -2    0    0    4    5    0.000028   -0.001669
   -2    0    0    5    5   -0.001221   -0.000000
   -2    0    0    6    5    0.000865    0.000037
   -2    0    0    7    5    0.000536    0.000619
   -2    0    0    8    5   -0.000814   -0.000043
   -2    0    0    9    5   -0.000562    0.000270
   -2    0    0   10    5   -0.001749   -0.014352
   -2    0    0   11    5    0.007611   -0.000685
   -2    0    0   12    5   -0.015593   -0.008818
   -2    0    0   13    5    0.002374   -0.005856
   -2    0    0   14    5   -0.009129   -0.012892
   -2    0    0   15    5   -0.035957   -0.014305
   -2    0    0   16    5   -0.006939   -0.000494
   -2    0    0   17    5   -0.007178   -0.021075
   -2    0    0   18    5    0.007297   -0.005238
   -2    0    0    1    6   -0.000551    0.002297
   -2    0    0    2    6   -0.002571    0.000289
   -2    0    0    3    6   -0.026471   -0.002374
   -2    0    0    4    6   -0.021925   -0.000034
   -2    0    0    5    6    0.000865   -0.000037
   -2    0    0    6    6    0.006782   -0.000000
   -2    0    0    7    6   -0.001202    0.000309
   -2    0    0    8    6    0.000911    0.000453
   -2    0    0    9    6    0.005382    0.000516
   -2    0    0   10    6   -0.027052    0.017494
   -2    0    0   11    6    0.012196   -0.021223
   -2    0    0   12    6   -0.005738    0.027577
   -2    0    0   13    6   -0.005463    0.003339
   -2    0    0   14    6   -0.000687    0.029667
   -2    0    0   15    6    0.030514   -0.005613
   -2    0    0   16    6    0.016752   -0.015988
   -2    0    0   17    6    0.010208    0.017592
   -2    0    0   18    6    0.001453    0.004512
   -2    0    0    1    7    0.002150    0.000353
   -2    0    0    2    7    0.000552   -0.000196
   -2    0    0    3    7    0.000624    0.000572
   -2    0    0    4    7    0.004163    0.000380
   -2    0    0    5    7    0.000536   -0.000619
   -2    0    0    6    7   -0.001202   -0.000309
   -2    0    0    7    7    0.000622   -0.000000
   -2    0    0    8    7    0.000936    0.000102
   -2    0    0    9    7   -0.000370   -0.000305
   -2    0    0   10    7   -0.005107    0.003284
   -2    0    0   11    7    0.008355   -0.003778
   -2    0    0   12    7   -0.003936    0.000474
   -2    0    0   13    7    0.005164   -0.000218
   -2    0    0   14    7   -0.004504    0.006143
   -2    0    0   15    7    0.014621   -0.001234
   -2    0    0   16    7    0.000457    0.000770
   -2    0    0   17    7   -0.000639    0.002185
   -2    0    0   18    7    0.000555    0.003529
   -2    0    0    1    8   -0.003179   -0.000214
   -2    0    0    2    8    0.007084   -0.000899
   -2    0    0    3    8    0.000345    0.001084
   -2    0    0    4    8    0.000015    0.001871
   -2    0    0    5    8   -0.000814    0.000043
   -2    0    0    6    8    0.000911   -0.000453
   -2    0    0    7    8    0.000936   -0.000102
   -2    0    0    8    8   -0.000994   -0.000000
   -2    0    0    9    8   -0.000621   -0.000282
   -2    0    0   10    8    0.021674   -0.002264
   -2    0    0   11    8    0.007662    0.003692
   -2    0    0   12    8   -0.003582   -0.015925
   -2    0    0   13    8    0.004722   -0.001501
   -2    0    0   14    8    0.012953   -0.006629
   -2    0    0   15    8   -0.004804    0.012984
   -2    0    0   16    8   -0.020395    0.024053
   -2    0    0   17    8   -0.014801   -0.015948
   -2    0    0   18    8    0.005727   -0.002708
   -2    0    0    1    9    0.001596    0.001218
   -2    0    0    2    9    0.000900    0.001067
   -2    0    0    3    9   -0.015304    0.000891
   -2    0    0    4    9   -0.025291    0.001204
   -2    0    0    5    9   -0.000562   -0.000270
   -2    0    0    6    9    0.005382   -0.000516
   -2    0    0    7    9   -0.000370    0.000305
   -2    0    0    8    9   -0.000621    0.000282
   -2    0    0    9    9    0.005154   -0.000000
   -2    0    0   10    9   -0.004444    0.004214
   -2    0    0   11    9    0.006156   -0.005972
   -2    0    0   12    9   -0.007236    0.003801
   -2    0    0   13    9   -0.015437    0.000326
   -2    0    0   14    9   -0.003081    0.007972
   -2    0    0   15    9    0.006360   -0.000468
   -2    0    0   16    9    0.002746   -0.003229
   -2    0    0   17    9    0.008057    0.003311
   -2    0    0   18    9    0.001962    0.008026
   -2    0    0    1   10    0.025911    0.010575
   -2    0    0    2   10   -0.032924   -0.018030
   -2    0    0    3   10    0.048979    0.039352
   -2    0    0    4   10    0.105167    0.032587
   -2    0    0    5   10   -0.001749    0.014352
   -2    0    0    6   10   -0.027052   -0.017494
   -2    0    0    7   10   -0.005107   -0.003284
   -2    0    0    8   10    0.021674    0.002264
   -2    0    0    9   10   -0.004444   -0.004214
   -2    0    0   10   10    0.053598    0.000000
   -2    0    0   11   10    0.014659   -0.015326
   -2    0    0   12   10   -0.021396   -0.003535
   -2    0    0   13   10    0.013814    0.011340
   -2    0    0   14   10    0.034263   -0.023117
   -2    0    0   15   10    0.002633   -0.032003
   -2    0    0   16   10   -0.026010    0.020219
   -2    0    0   17   10   -0.023204   -0.021200
   -2    0    0   18   10    0.005462   -0.011321
   -2    0    0    1   11    0.013068   -0.016512
   -2    0    0    2   11    0.026582    0.024928
   -2    0    0    3   11   -0.041386   -0.047277
   -2    0    0    4   11    0.000074   -0.035438
   -2    0    0    5   11    0.007611    0.000685
   -2    0    0    6   11    0.012196    0.021223
   -2    0    0    7   11    0.008355    0.003778
   -2    0    0    8   11    0.007662   -0.003692
   -2    0    0    9   11    0.006156    0.005972
   -2    0    0   10   11    0.014659    0.015326
   -2    0    0   11   11    0.042192    0.000000
   -2    0    0   12   11   -0.034017   -0.000897
   -2    0    0   13   11   -0.010997   -0.006925
   -2    0    0   14   11    0.033619    0.022469
   -2    0    0   15   11    0.004077   -0.006101
   -2    0    0   16   11    0.024655    0.006712
   -2    0    0   17   11    0.001545    0.014608
   -2    0    0   18   11    0.023933   -0.005447
   -2    0    0    1   12   -0.018638    0.037502
   -2    0    0    2   12   -0.005526   -0.015124
   -2    0    0    3   12    0.013461    0.057612
   -2    0    0    4   12   -0.031657    0.070709
   -2    0    0    5   12   -0.015593    0.008818
   -2    0    0    6   12   -0.005738   -0.027577
   -2    0    0    7   12   -0.003936   -0.000474
   -2    0    0    8   12   -0.003582    0.015925
   -2    0    0    9   12   -0.007236   -0.003801
   -2    0    0   10   12   -0.021396    0.003535
   -2    0    0   11   12   -0.034017    0.000897
   -2    0    0   12   12    0.025622    0.000000
   -2    0    0   13   12    0.013603    0.018635
   -2    0    0   14   12   -0.024422   -0.004055
   -2    0    0   15   12    0.002685   -0.015086
   -2    0    0   16   12    0.008825   -0.006515
   -2    0    0   17   12    0.019161   -0.020207
   -2    0    0   18   12   -0.040209   -0.003984
   -2    0    0    1   13   -0.014149    0.011131
   -2    0    0    2   13    0.014256    0.004863
   -2    0    0    3   13    0.026507    0.006897
   -2    0    0    4   13    0.069230    0.009025
   -2    0    0    5   13    0.002374    0.005856
   -2    0    0    6   13   -0.005463   -0.003339
   -2    0    0    7   13    0.005164    0.000218
   -2    0    0    8   13    0.004722    0.001501
   -2    0    0    9   13   -0.015437   -0.000326
   -2    0    0   10   13    0.013814   -0.011340
   -2    0    0   11   13   -0.010997    0.006925
   -2    0    0   12   13    0.013603   -0.018635
   -2    0    0   13   13   -0.011513    0.000000
   -2    0    0   14   13    0.007134   -0.021949
   -2    0    0   15   13    0.010948   -0.019115
   -2    0    0   16   13    0.003749    0.006541
   -2    0    0   17   13   -0.010401   -0.020494
   -2    0    0   18   13   -0.018249    0.002282
   -2    0    0    1   14   -0.011431    0.019140
   -2    0    0    2   14   -0.015847   -0.040382
   -2    0    0    3   14   -0.008977    0.054430
   -2    0    0    4   14    0.042250    0.068787
   -2    0    0    5   14   -0.009129    0.012892
   -2    0    0    6   14   -0.000687   -0.029667
   -2    0    0    7   14   -0.004504   -0.006143
   -2    0    0    8   14    0.012953    0.006629
   -2    0    0    9   14   -0.003081   -0.007972
   -2    0    0   10   14    0.034263    0.023117
   -2    0    0   11   14    0.033619   -0.022469
   -2    0    0   12   14   -0.024422    0.004055
   -2    0    0   13   14    0.007134    0.021949
   -2    0    0   14   14    0.035518    0.000000
   -2    0    0   15   14    0.052640   -0.013629
   -2    0    0   16   14   -0.012156    0.024135
   -2    0    0   17   14    0.031261   -0.016000
   -2    0    0   18   14   -0.009620   -0.016238
   -2    0    0    1   15    0.003646   -0.002505
   -2    0    0    2   15    0.066244   -0.007601
   -2    0    0    3   15   -0.060388   -0.018305
   -2    0    0    4   15   -0.053659   -0.003689
   -2    0    0    5   15   -0.035957    0.014305
   -2    0    0    6   15    0.030514    0.005613
   -2    0    0    7   15    0.014621    0.001234
   -2    0    0    8   15   -0.004804   -0.012984
   -2    0    0    9   15    0.006360    0.000468
   -2    0    0   10   15    0.002633    0.032003
   -2    0    0   11   15    0.004077    0.006101
   -2    0    0   12   15    0.002685    0.015086
   -2    0    0   13   15    0.010948    0.019115
   -2    0    0   14   15    0.052640    0.013629
   -2    0    0   15   15   -0.060431    0.000000
   -2    0    0   16   15    0.018258   -0.044454
   -2    0    0   17   15   -0.017300    0.039788
   -2    0    0   18   15    0.012613    0.007158
   -2    0    0    1   16   -0.001854   -0.026123
   -2    0    0    2   16    0.011417    0.012035
   -2    0    0    3   16   -0.034700   -0.025043
   -2    0    0    4   16   -0.043027   -0.025245
   -2    0    0    5   16   -0.006939    0.000494
   -2    0    0    6   16    0.016752    0.015988
   -2    0    0    7   16    0.000457   -0.000770
   -2    0    0    8   16   -0.020395   -0.024053
   -2    0    0    9   16    0.002746    0.003229
   -2    0    0   10   16   -0.026010   -0.020219
   -2    0    0   11   16    0.024655   -0.006712
   -2    0    0   12   16    0.008825    0.006515
   -2    0    0   13   16    0.003749   -0.006541
   -2    0    0   14   16   -0.012156   -0.024135
   -2    0    0   15   16    0.018258    0.044454
   -2    0    0   16   16   -0.085785    0.000000
   -2    0    0   17   16    0.034666    0.010161
   -2    0    0   18   16    0.003898    0.053488
   -2    0    0    1   17   -0.001644    0.021659
   -2    0    0    2   17   -0.005264   -0.017631
   -2    0    0    3   17   -0.036724    0.039116
   -2    0    0    4   17   -0.031166    0.047282
   -2    0    0    5   17   -0.007178    0.021075
[...]
    2    2   -2   16   14   -0.003101    0.001456
    2    2   -2   17   14   -0.007001    0.014465
    2    2   -2   18   14    0.005022   -0.004744
    2    2   -2    1   15   -0.019091   -0.007464
    2    2   -2    2   15   -0.027868   -0.000753
    2    2   -2    3   15    0.007912   -0.002205
    2    2   -2    4   15   -0.018514    0.001399
    2    2   -2    5   15   -0.001008   -0.009056
    2    2   -2    6   15    0.000076    0.001116
    2    2   -2    7   15   -0.002877    0.000017
    2    2   -2    8   15    0.001290   -0.007565
    2    2   -2    9   15    0.001126   -0.003250
    2    2   -2   10   15   -0.013855   -0.003589
    2    2   -2   11   15   -0.008121   -0.010537
    2    2   -2   12   15    0.001268    0.006974
    2    2   -2   13   15   -0.006644   -0.006267
    2    2   -2   14   15   -0.013320    0.006493
    2    2   -2   15   15    0.084711    0.000000
    2    2   -2   16   15   -0.029595    0.000050
    2    2   -2   17   15    0.035685    0.027007
    2    2   -2   18   15    0.012769    0.002905
    2    2   -2    1   16   -0.006090   -0.000104
    2    2   -2    2   16    0.010477    0.004576
    2    2   -2    3   16   -0.010420    0.000709
    2    2   -2    4   16   -0.005198   -0.001480
    2    2   -2    5   16   -0.002877   -0.002811
    2    2   -2    6   16    0.006404   -0.001952
    2    2   -2    7   16   -0.000872    0.001374
    2    2   -2    8   16    0.005317   -0.000340
    2    2   -2    9   16   -0.001683    0.001264
    2    2   -2   10   16    0.009425    0.004151
    2    2   -2   11   16   -0.008253    0.004337
    2    2   -2   12   16   -0.000067   -0.017662
    2    2   -2   13   16   -0.014762   -0.010393
    2    2   -2   14   16   -0.003101   -0.001456
    2    2   -2   15   16   -0.029595   -0.000050
    2    2   -2   16   16    0.063248    0.000000
    2    2   -2   17   16   -0.000349    0.023658
    2    2   -2   18   16   -0.030323   -0.027218
    2    2   -2    1   17   -0.006261    0.000186
    2    2   -2    2   17   -0.004692    0.007029
    2    2   -2    3   17   -0.009589    0.000249
    2    2   -2    4   17   -0.010831    0.006020
    2    2   -2    5   17    0.000612    0.002290
    2    2   -2    6   17    0.001111    0.001696
    2    2   -2    7   17    0.000296    0.002072
    2    2   -2    8   17   -0.004387   -0.000616
    2    2   -2    9   17    0.002967   -0.000153
    2    2   -2   10   17    0.007920   -0.009764
    2    2   -2   11   17   -0.000631    0.010824
    2    2   -2   12   17   -0.004663   -0.015413
    2    2   -2   13   17   -0.001478   -0.004618
    2    2   -2   14   17   -0.007001   -0.014465
    2    2   -2   15   17    0.035685   -0.027007
    2    2   -2   16   17   -0.000349   -0.023658
    2    2   -2   17   17    0.112188   -0.000000
    2    2   -2   18   17    0.007004    0.009746
    2    2   -2    1   18    0.012206   -0.007882
    2    2   -2    2   18    0.019776   -0.003446
    2    2   -2    3   18   -0.007722    0.000896
    2    2   -2    4   18   -0.011083    0.002573
    2    2   -2    5   18   -0.009559    0.007401
    2    2   -2    6   18    0.003310    0.001302
    2    2   -2    7   18    0.005000   -0.000570
    2    2   -2    8   18   -0.008156   -0.004663
    2    2   -2    9   18    0.004559   -0.000781
    2    2   -2   10   18   -0.008648    0.003129
    2    2   -2   11   18   -0.000949   -0.005378
    2    2   -2   12   18    0.009747    0.001832
    2    2   -2   13   18    0.009057   -0.000028
    2    2   -2   14   18    0.005022    0.004744
    2    2   -2   15   18    0.012769   -0.002905
    2    2   -2   16   18   -0.030323    0.027218
    2    2   -2   17   18    0.007004   -0.009746
    2    2   -2   18   18    0.082417    0.000000
    3   -1   -1    1    1   -0.006784   -0.007456
    3   -1   -1    2    1    0.000187   -0.001468
    3   -1   -1    3    1   -0.003574    0.000132
    3   -1   -1    4    1    0.004232    0.004542
    3   -1   -1    5    1   -0.002334    0.000419
    3   -1   -1    6    1   -0.000058    0.000460
    3   -1   -1    7    1    0.000622   -0.000632
    3   -1   -1    8    1   -0.000969   -0.002006
    3   -1   -1    9    1   -0.001247   -0.000865
    3   -1   -1   10    1   -0.029469   -0.010297
    3   -1   -1   11    1   -0.025490    0.005888
    3   -1   -1   12    1   -0.006410    0.001848
    3   -1   -1   13    1    0.015862    0.001393
    3   -1   -1   14    1    0.011523   -0.001025
    3   -1   -1   15    1    0.015870   -0.021674
    3   -1   -1   16    1    0.019408    0.015229
    3   -1   -1   17    1   -0.017353    0.012016
    3   -1   -1   18    1    0.003377   -0.015189
    3   -1   -1    1    2   -0.006008   -0.004648
    3   -1   -1    2    2   -0.010980    0.000255
    3   -1   -1    3    2    0.008443   -0.002498
    3   -1   -1    4    2   -0.007025    0.003619
    3   -1   -1    5    2   -0.001552   -0.001968
    3   -1   -1    6    2   -0.001070    0.000558
    3   -1   -1    7    2   -0.002149   -0.000228
    3   -1   -1    8    2    0.002120   -0.002123
    3   -1   -1    9    2    0.000104   -0.000177
    3   -1   -1   10    2   -0.012550   -0.006000
    3   -1   -1   11    2   -0.025683    0.004157
    3   -1   -1   12    2   -0.011706    0.003220
    3   -1   -1   13    2   -0.009014   -0.000217
    3   -1   -1   14    2    0.016988   -0.012681
    3   -1   -1   15    2   -0.067547    0.026571
    3   -1   -1   16    2    0.013740    0.008824
    3   -1   -1   17    2   -0.011770    0.019493
    3   -1   -1   18    2   -0.050559   -0.029965
    3   -1   -1    1    3   -0.004529   -0.000705
    3   -1   -1    2    3    0.006977   -0.002698
    3   -1   -1    3    3   -0.009872    0.003859
    3   -1   -1    4    3   -0.008758    0.002312
    3   -1   -1    5    3   -0.000310   -0.001052
    3   -1   -1    6    3    0.001382   -0.000590
    3   -1   -1    7    3    0.000702   -0.000806
    3   -1   -1    8    3    0.000866   -0.000725
    3   -1   -1    9    3    0.000184   -0.000918
    3   -1   -1   10    3   -0.000343   -0.003172
    3   -1   -1   11    3    0.002763    0.001113
    3   -1   -1   12    3   -0.006053   -0.006436
    3   -1   -1   13    3   -0.011457    0.000035
    3   -1   -1   14    3   -0.002665    0.004842
    3   -1   -1   15    3   -0.026619   -0.004060
    3   -1   -1   16    3    0.028697   -0.000225
    3   -1   -1   17    3   -0.000935   -0.014565
    3   -1   -1   18    3    0.009490   -0.012162
    3   -1   -1    1    4    0.000162   -0.002244
    3   -1   -1    2    4   -0.010519   -0.002835
    3   -1   -1    3    4   -0.008074   -0.000212
    3   -1   -1    4    4   -0.004562    0.001656
    3   -1   -1    5    4    0.001271   -0.001408
    3   -1   -1    6    4    0.000242   -0.000444
    3   -1   -1    7    4   -0.001378   -0.001240
    3   -1   -1    8    4    0.002574    0.000437
    3   -1   -1    9    4    0.000051   -0.000780
    3   -1   -1   10    4    0.032468    0.004904
    3   -1   -1   11    4   -0.008275    0.003796
    3   -1   -1   12    4   -0.012568   -0.009474
    3   -1   -1   13    4   -0.031524   -0.003293
    3   -1   -1   14    4    0.005668   -0.010677
    3   -1   -1   15    4    0.024300   -0.000451
    3   -1   -1   16    4    0.045641    0.007928
    3   -1   -1   17    4    0.042340    0.010837
    3   -1   -1   18    4   -0.022718   -0.013700
    3   -1   -1    1    5    0.000922   -0.000992
    3   -1   -1    2    5   -0.001636    0.000398
    3   -1   -1    3    5    0.001671   -0.001804
    3   -1   -1    4    5   -0.000368   -0.000480
    3   -1   -1    5    5   -0.000007    0.000120
    3   -1   -1    6    5   -0.000421    0.000426
    3   -1   -1    7    5   -0.000270   -0.000073
    3   -1   -1    8    5    0.000154    0.001025
    3   -1   -1    9    5    0.000285   -0.000014
    3   -1   -1   10    5    0.007081    0.002968
    3   -1   -1   11    5   -0.006414   -0.002453
    3   -1   -1   12    5    0.007049    0.001039
    3   -1   -1   13    5    0.000095    0.002057
    3   -1   -1   14    5    0.012246    0.000906
    3   -1   -1   15    5    0.023082    0.016847
    3   -1   -1   16    5   -0.023035    0.001323
    3   -1   -1   17    5    0.014353    0.015154
    3   -1   -1   18    5   -0.015804   -0.004245
    3   -1   -1    1    6    0.000771    0.000649
    3   -1   -1    2    6   -0.000568    0.000629
    3   -1   -1    3    6    0.000928   -0.000569
    3   -1   -1    4    6    0.000257   -0.000527
    3   -1   -1    5    6   -0.000034    0.000141
    3   -1   -1    6    6    0.000104    0.000071
    3   -1   -1    7    6   -0.000114    0.000188
    3   -1   -1    8    6   -0.000070    0.000180
    3   -1   -1    9    6    0.000058    0.000252
    3   -1   -1   10    6    0.001935    0.001310
    3   -1   -1   11    6   -0.001877   -0.000262
    3   -1   -1   12    6    0.002615    0.002523
    3   -1   -1   13    6   -0.000003    0.001012
    3   -1   -1   14    6    0.000306   -0.000491
    3   -1   -1   15    6    0.010739    0.002046
    3   -1   -1   16    6   -0.005985    0.003602
    3   -1   -1   17    6    0.004956    0.000924
    3   -1   -1   18    6    0.001037   -0.000565
    3   -1   -1    1    7   -0.000547   -0.001419
    3   -1   -1    2    7   -0.001116   -0.000067
    3   -1   -1    3    7    0.000920   -0.000574
    3   -1   -1    4    7   -0.000396    0.000566
    3   -1   -1    5    7   -0.000317   -0.000147
    3   -1   -1    6    7   -0.000226    0.000216
    3   -1   -1    7    7   -0.000019   -0.000130
    3   -1   -1    8    7    0.000332   -0.000456
    3   -1   -1    9    7   -0.000072   -0.000071
    3   -1   -1   10    7   -0.005082    0.001626
    3   -1   -1   11    7   -0.004554    0.000570
    3   -1   -1   12    7   -0.006311    0.000156
    3   -1   -1   13    7   -0.002999   -0.003421
    3   -1   -1   14    7    0.001218    0.000636
    3   -1   -1   15    7   -0.020557    0.001467
    3   -1   -1   16    7    0.007367    0.002688
    3   -1   -1   17    7   -0.010608   -0.000179
    3   -1   -1   18    7   -0.004257   -0.002430
    3   -1   -1    1    8   -0.000897    0.000862
    3   -1   -1    2    8   -0.001430    0.002536
    3   -1   -1    3    8   -0.001420   -0.002623
    3   -1   -1    4    8   -0.001528   -0.001235
    3   -1   -1    5    8    0.000465   -0.001032
    3   -1   -1    6    8    0.000283    0.000442
    3   -1   -1    7    8   -0.000210    0.000363
    3   -1   -1    8    8    0.000092   -0.000003
    3   -1   -1    9    8    0.000014    0.000248
    3   -1   -1   10    8   -0.004065    0.001491
    3   -1   -1   11    8    0.005134   -0.007738
    3   -1   -1   12    8   -0.011127    0.003425
    3   -1   -1   13    8   -0.006586   -0.001850
    3   -1   -1   14    8   -0.005270    0.010387
    3   -1   -1   15    8   -0.019471    0.016500
    3   -1   -1   16    8    0.014450   -0.007164
    3   -1   -1   17    8   -0.016419    0.001475
    3   -1   -1   18    8    0.006005   -0.007949
    3   -1   -1    1    9    0.000855   -0.000254
    3   -1   -1    2    9    0.001888    0.000755
    3   -1   -1    3    9    0.000604   -0.000442
    3   -1   -1    4    9   -0.000303    0.000261
    3   -1   -1    5    9   -0.000279    0.000331
    3   -1   -1    6    9   -0.000109    0.000199
    3   -1   -1    7    9    0.000388    0.000291
    3   -1   -1    8    9   -0.000679   -0.000196
    3   -1   -1    9    9    0.000359    0.000013
    3   -1   -1   10    9   -0.007956   -0.003480
    3   -1   -1   11    9   -0.000115    0.000749
    3   -1   -1   12    9    0.001481   -0.003288
    3   -1   -1   13    9    0.008392   -0.001364
    3   -1   -1   14    9   -0.000765    0.000743
    3   -1   -1   15    9    0.001528   -0.018056
    3   -1   -1   16    9    0.006640   -0.000049
    3   -1   -1   17    9   -0.009220   -0.000388
    3   -1   -1   18    9    0.007066    0.004010
    3   -1   -1    1   10    0.003868   -0.002946
    3   -1   -1    2   10   -0.002202    0.000859
    3   -1   -1    3   10    0.002279   -0.003126
    3   -1   -1    4   10    0.002640    0.002876
    3   -1   -1    5   10    0.003126   -0.000291
    3   -1   -1    6   10   -0.000515    0.001139
    3   -1   -1    7   10    0.002722    0.001179
    3   -1   -1    8   10    0.000308    0.006967
    3   -1   -1    9   10    0.001041   -0.001249
    3   -1   -1   10   10    0.021063   -0.001645
    3   -1   -1   11   10   -0.010755    0.005356
    3   -1   -1   12   10    0.024354   -0.000432
    3   -1   -1   13   10    0.004142    0.008843
    3   -1   -1   14   10    0.022008   -0.013253
    3   -1   -1   15   10    0.024706    0.030516
    3   -1   -1   16   10    0.001094    0.009464
    3   -1   -1   17   10    0.014162    0.025895
    3   -1   -1   18   10   -0.028501   -0.015369
    3   -1   -1    1   11    0.002918    0.004607
    3   -1   -1    2   11   -0.006884   -0.008135
    3   -1   -1    3   11    0.007339    0.006722
    3   -1   -1    4   11   -0.001715   -0.007331
    3   -1   -1    5   11    0.001488    0.001032
    3   -1   -1    6   11   -0.001660   -0.001371
    3   -1   -1    7   11   -0.004485   -0.002400
    3   -1   -1    8   11   -0.000173   -0.000960
    3   -1   -1    9   11    0.000955    0.002238
    3   -1   -1   10   11   -0.008725   -0.002661
    3   -1   -1   11   11    0.015786    0.003565
    3   -1   -1   12   11   -0.011998   -0.007816
    3   -1   -1   13   11    0.005231   -0.006758
    3   -1   -1   14   11   -0.017178    0.001219
    3   -1   -1   15   11   -0.006907   -0.016395
    3   -1   -1   16   11    0.010441   -0.034611
    3   -1   -1   17   11   -0.013355    0.002162
    3   -1   -1   18   11   -0.008362    0.026761
    3   -1   -1    1   12    0.001359   -0.001804
    3   -1   -1    2   12    0.015717    0.002492
    3   -1   -1    3   12   -0.003271    0.001570
    3   -1   -1    4   12    0.003318    0.006245
    3   -1   -1    5   12    0.000101    0.002904
    3   -1   -1    6   12    0.000745   -0.000350
    3   -1   -1    7   12    0.007613    0.000293
    3   -1   -1    8   12   -0.000036    0.005375
    3   -1   -1    9   12   -0.001218   -0.002290
    3   -1   -1   10   12    0.011209   -0.003085
    3   -1   -1   11   12   -0.009556    0.005860
    3   -1   -1   12   12    0.018402   -0.003457
    3   -1   -1   13   12    0.007146    0.003576
    3   -1   -1   14   12    0.013336   -0.010616
    3   -1   -1   15   12    0.013112   -0.006104
    3   -1   -1   16   12    0.006758    0.035893
    3   -1   -1   17   12    0.002820   -0.012591
    3   -1   -1   18   12   -0.014432   -0.020243
    3   -1   -1    1   13    0.003177    0.001052
    3   -1   -1    2   13    0.000491   -0.002411
    3   -1   -1    3   13    0.003499    0.001427
    3   -1   -1    4   13    0.004944   -0.002184
    3   -1   -1    5   13   -0.000448    0.003116
    3   -1   -1    6   13    0.001162   -0.000302
    3   -1   -1    7   13    0.001827   -0.002244
    3   -1   -1    8   13   -0.000979    0.000145
    3   -1   -1    9   13   -0.000865    0.000061
    3   -1   -1   10   13   -0.008944   -0.006897
    3   -1   -1   11   13    0.011568    0.006471
    3   -1   -1   12   13   -0.000173   -0.012277
    3   -1   -1   13   13    0.015366   -0.009459
    3   -1   -1   14   13   -0.008022   -0.012367
    3   -1   -1   15   13   -0.004214   -0.038010
    3   -1   -1   16   13    0.012307   -0.001929
    3   -1   -1   17   13   -0.013074   -0.009887
    3   -1   -1   18   13   -0.014871    0.021331
    3   -1   -1    1   14    0.007697   -0.002287
    3   -1   -1    2   14   -0.004826   -0.002987
    3   -1   -1    3   14    0.011013    0.003651
    3   -1   -1    4   14    0.002910    0.012577
    3   -1   -1    5   14   -0.001207    0.000900
    3   -1   -1    6   14   -0.002347   -0.000636
    3   -1   -1    7   14    0.002290    0.002632
    3   -1   -1    8   14   -0.002339    0.003625
    3   -1   -1    9   14    0.001229   -0.002236
    3   -1   -1   10   14    0.012923    0.002656
    3   -1   -1   11   14   -0.008501    0.001740
    3   -1   -1   12   14    0.022354    0.006898
    3   -1   -1   13   14    0.011393    0.009268
    3   -1   -1   14   14    0.026812   -0.007711
    3   -1   -1   15   14    0.017750    0.008059
    3   -1   -1   16   14    0.013008    0.009144
    3   -1   -1   17   14   -0.018397    0.013744
    3   -1   -1   18   14   -0.018523   -0.032144
    3   -1   -1    1   15    0.011824    0.014484
    3   -1   -1    2   15    0.032946    0.016619
    3   -1   -1    3   15   -0.017949   -0.012983
    3   -1   -1    4   15    0.019485   -0.015084
    3   -1   -1    5   15   -0.001357   -0.000670
    3   -1   -1    6   15    0.005829    0.004498
    3   -1   -1    7   15    0.011715    0.005737
    3   -1   -1    8   15   -0.000872   -0.002447
    3   -1   -1    9   15   -0.000280    0.001073
    3   -1   -1   10   15   -0.002202   -0.020064
    3   -1   -1   11   15    0.002769    0.005631
    3   -1   -1   12   15   -0.009446   -0.012252
    3   -1   -1   13   15    0.001266    0.001452
    3   -1   -1   14   15    0.031355   -0.013445
    3   -1   -1   15   15   -0.123547    0.041607
    3   -1   -1   16   15    0.003794   -0.014122
    3   -1   -1   17   15   -0.008697   -0.001846
    3   -1   -1   18   15   -0.035790    0.051721
    3   -1   -1    1   16    0.008565   -0.010691
    3   -1   -1    2   16   -0.005708   -0.003486
    3   -1   -1    3   16    0.010403   -0.002373
    3   -1   -1    4   16    0.001404    0.000266
    3   -1   -1    5   16   -0.001625   -0.011250
    3   -1   -1    6   16   -0.002037    0.003446
    3   -1   -1    7   16    0.006026   -0.002040
    3   -1   -1    8   16    0.008207   -0.002796
    3   -1   -1    9   16    0.003506   -0.000449
    3   -1   -1   10   16   -0.015779    0.007636
    3   -1   -1   11   16    0.005056   -0.007526
    3   -1   -1   12   16   -0.017533    0.022455
    3   -1   -1   13   16    0.012740    0.006093
    3   -1   -1   14   16    0.004209    0.015223
    3   -1   -1   15   16    0.043683    0.043860
    3   -1   -1   16   16   -0.094767    0.023362
    3   -1   -1   17   16    0.010461    0.033258
    3   -1   -1   18   16    0.018624   -0.000298
    3   -1   -1    1   17    0.005912    0.009458
    3   -1   -1    2   17    0.000645    0.004644
    3   -1   -1    3   17    0.011874    0.000308
    3   -1   -1    4   17    0.025691   -0.020628
    3   -1   -1    5   17    0.005650    0.000446
    3   -1   -1    6   17   -0.001923   -0.000396
    3   -1   -1    7   17   -0.000527   -0.001277
    3   -1   -1    8   17    0.006648    0.004850
    3   -1   -1    9   17   -0.006357    0.002878
    3   -1   -1   10   17    0.001867    0.003103
    3   -1   -1   11   17    0.000959   -0.017082
    3   -1   -1   12   17    0.004307    0.018836
    3   -1   -1   13   17    0.010956    0.000138
    3   -1   -1   14   17    0.008070    0.013285
    3   -1   -1   15   17   -0.016039   -0.004442
    3   -1   -1   16   17    0.001287    0.007845
    3   -1   -1   17   17   -0.075451   -0.050226
    3   -1   -1   18   17   -0.038023    0.014202
    3   -1   -1    1   18   -0.003273   -0.005383
    3   -1   -1    2   18   -0.005316    0.001297
    3   -1   -1    3   18    0.005568   -0.002419
    3   -1   -1    4   18    0.003704   -0.008634
    3   -1   -1    5   18   -0.000449    0.008226
    3   -1   -1    6   18   -0.002925   -0.000684
    3   -1   -1    7   18   -0.003014   -0.001189
    3   -1   -1    8   18   -0.004296   -0.000052
    3   -1   -1    9   18    0.003104    0.001013
    3   -1   -1   10   18   -0.007980   -0.008244
    3   -1   -1   11   18   -0.015934    0.014795
    3   -1   -1   12   18    0.000630   -0.008098
    3   -1   -1   13   18    0.018975   -0.004869
    3   -1   -1   14   18    0.002583   -0.022867
    3   -1   -1   15   18    0.053515    0.034011
    3   -1   -1   16   18    0.010242   -0.032836
    3   -1   -1   17   18    0.010915    0.041746
    3   -1   -1   18   18   -0.070168    0.005579
