 written on 10Jan2020 at 02:22:22 
          22
          21
    4    2    4    4    2    4    4    2    4    2    1    2    4    2    4
    4    2    4    4    2    4
   -1   -1   -1    1    1    0.000503   -0.000000
   -1   -1   -1    2    1    0.020454    0.011177
   -1   -1   -1    3    1   -0.003872   -0.001723
   -1   -1   -1    4    1   -0.002090   -0.003336
   -1   -1   -1    5    1    0.001714   -0.004587
   -1   -1   -1    6    1   -0.012415    0.001603
   -1   -1   -1    7    1   -0.003451   -0.036676
   -1   -1   -1    8    1    0.035089    0.048276
   -1   -1   -1    9    1   -0.002836   -0.002832
   -1   -1   -1   10    1   -0.000805    0.001088
   -1   -1   -1   11    1    0.044994    0.009349
   -1   -1   -1   12    1    0.011238   -0.001473
   -1   -1   -1   13    1   -0.000927   -0.008233
   -1   -1   -1   14    1   -0.007626   -0.001538
   -1   -1   -1   15    1    0.011544   -0.011072
   -1   -1   -1   16    1   -0.002590   -0.003827
   -1   -1   -1   17    1    0.002686   -0.000972
   -1   -1   -1   18    1   -0.001028   -0.007521
   -1   -1   -1   19    1   -0.004371   -0.005770
   -1   -1   -1   20    1    0.008624   -0.003227
   -1   -1   -1   21    1   -0.003983   -0.000328
   -1   -1   -1   22    1   -0.003034    0.002429
   -1   -1   -1    1    2    0.020454   -0.011177
   -1   -1   -1    2    2   -0.046157    0.000000
   -1   -1   -1    3    2    0.115646   -0.081233
   -1   -1   -1    4    2   -0.002523   -0.014929
   -1   -1   -1    5    2   -0.016519    0.018061
   -1   -1   -1    6    2    0.005930   -0.000238
   -1   -1   -1    7    2   -0.097778    0.153677
   -1   -1   -1    8    2    0.022693   -0.056777
   -1   -1   -1    9    2    0.018935    0.025254
   -1   -1   -1   10    2   -0.023034   -0.009486
   -1   -1   -1   11    2   -0.073279   -0.064347
   -1   -1   -1   12    2   -0.003905    0.013656
   -1   -1   -1   13    2   -0.021132    0.033983
   -1   -1   -1   14    2    0.035464   -0.035335
   -1   -1   -1   15    2   -0.078032    0.123193
   -1   -1   -1   16    2    0.011874    0.035673
   -1   -1   -1   17    2    0.035348   -0.033787
   -1   -1   -1   18    2   -0.008831   -0.113865
   -1   -1   -1   19    2    0.028867    0.014671
   -1   -1   -1   20    2   -0.060747   -0.002264
   -1   -1   -1   21    2    0.028397    0.003563
   -1   -1   -1   22    2   -0.005644    0.010716
   -1   -1   -1    1    3   -0.003872    0.001723
   -1   -1   -1    2    3    0.115646    0.081233
   -1   -1   -1    3    3    0.061673   -0.000000
   -1   -1   -1    4    3   -0.009227    0.004932
   -1   -1   -1    5    3   -0.006844   -0.004601
   -1   -1   -1    6    3   -0.010697   -0.009273
   -1   -1   -1    7    3    0.066880   -0.042183
   -1   -1   -1    8    3   -0.023397   -0.001230
   -1   -1   -1    9    3    0.012247    0.010214
   -1   -1   -1   10    3    0.009814    0.009813
   -1   -1   -1   11    3    0.036208    0.036624
   -1   -1   -1   12    3   -0.008147    0.023270
   -1   -1   -1   13    3    0.036949   -0.012099
   -1   -1   -1   14    3    0.010910   -0.012065
   -1   -1   -1   15    3    0.110253   -0.016913
   -1   -1   -1   16    3    0.003725    0.002325
   -1   -1   -1   17    3    0.003934   -0.021201
   -1   -1   -1   18    3   -0.014030    0.104829
   -1   -1   -1   19    3   -0.042337   -0.009993
   -1   -1   -1   20    3   -0.013069    0.033814
   -1   -1   -1   21    3   -0.022084    0.032847
   -1   -1   -1   22    3   -0.004203   -0.004269
   -1   -1   -1    1    4   -0.002090    0.003336
   -1   -1   -1    2    4   -0.002523    0.014929
   -1   -1   -1    3    4   -0.009227   -0.004932
   -1   -1   -1    4    4    0.003947    0.000000
   -1   -1   -1    5    4    0.000391    0.000632
   -1   -1   -1    6    4   -0.002819    0.000546
   -1   -1   -1    7    4    0.000869   -0.002095
   -1   -1   -1    8    4    0.012381    0.006783
   -1   -1   -1    9    4    0.019416   -0.008401
   -1   -1   -1   10    4    0.002367    0.004478
   -1   -1   -1   11    4   -0.020079    0.000368
   -1   -1   -1   12    4   -0.003479   -0.005268
   -1   -1   -1   13    4    0.003607   -0.007562
   -1   -1   -1   14    4    0.007468   -0.003239
   -1   -1   -1   15    4    0.001519    0.021666
   -1   -1   -1   16    4    0.005411   -0.009411
   -1   -1   -1   17    4   -0.002540    0.006563
   -1   -1   -1   18    4   -0.011046   -0.006813
   -1   -1   -1   19    4    0.009125    0.003378
   -1   -1   -1   20    4   -0.002953    0.001387
   -1   -1   -1   21    4   -0.002639    0.001798
   -1   -1   -1   22    4    0.009032   -0.000575
   -1   -1   -1    1    5    0.001714    0.004587
   -1   -1   -1    2    5   -0.016519   -0.018061
   -1   -1   -1    3    5   -0.006844    0.004601
   -1   -1   -1    4    5    0.000391   -0.000632
   -1   -1   -1    5    5   -0.006200    0.000000
   -1   -1   -1    6    5    0.000866   -0.000544
   -1   -1   -1    7    5   -0.009114   -0.011939
   -1   -1   -1    8    5   -0.023949    0.006631
   -1   -1   -1    9    5   -0.016301   -0.002815
   -1   -1   -1   10    5   -0.006744    0.005243
   -1   -1   -1   11    5    0.021884   -0.004951
   -1   -1   -1   12    5   -0.003732    0.007615
   -1   -1   -1   13    5   -0.009106   -0.007764
   -1   -1   -1   14    5    0.002185    0.001249
   -1   -1   -1   15    5   -0.007559   -0.020125
   -1   -1   -1   16    5    0.002482    0.002396
   -1   -1   -1   17    5    0.003213    0.005131
   -1   -1   -1   18    5    0.002772    0.018570
   -1   -1   -1   19    5    0.005940    0.001427
   -1   -1   -1   20    5    0.000702    0.001041
   -1   -1   -1   21    5    0.022002    0.000883
   -1   -1   -1   22    5    0.022865    0.003862
   -1   -1   -1    1    6   -0.012415   -0.001603
   -1   -1   -1    2    6    0.005930    0.000238
   -1   -1   -1    3    6   -0.010697    0.009273
   -1   -1   -1    4    6   -0.002819   -0.000546
   -1   -1   -1    5    6    0.000866    0.000544
   -1   -1   -1    6    6   -0.001010   -0.000000
   -1   -1   -1    7    6    0.000872   -0.001392
   -1   -1   -1    8    6   -0.001216   -0.005282
   -1   -1   -1    9    6   -0.000466    0.000680
   -1   -1   -1   10    6   -0.000395   -0.001113
   -1   -1   -1   11    6    0.001567    0.001367
   -1   -1   -1   12    6    0.000182    0.000468
   -1   -1   -1   13    6    0.001705   -0.000294
   -1   -1   -1   14    6   -0.022521   -0.000209
   -1   -1   -1   15    6   -0.003115   -0.014394
   -1   -1   -1   16    6   -0.002980    0.007438
   -1   -1   -1   17    6   -0.002024   -0.003690
   -1   -1   -1   18    6   -0.001256    0.006242
   -1   -1   -1   19    6    0.001449   -0.004178
   -1   -1   -1   20    6   -0.002404    0.000769
   -1   -1   -1   21    6    0.000339   -0.000379
   -1   -1   -1   22    6   -0.002415    0.000334
   -1   -1   -1    1    7   -0.003451    0.036676
   -1   -1   -1    2    7   -0.097778   -0.153677
   -1   -1   -1    3    7    0.066880    0.042183
   -1   -1   -1    4    7    0.000869    0.002095
   -1   -1   -1    5    7   -0.009114    0.011939
   -1   -1   -1    6    7    0.000872    0.001392
   -1   -1   -1    7    7   -0.002032   -0.000000
   -1   -1   -1    8    7   -0.014051   -0.066326
   -1   -1   -1    9    7    0.005727    0.002381
   -1   -1   -1   10    7    0.005122    0.000430
   -1   -1   -1   11    7   -0.009040    0.010775
   -1   -1   -1   12    7   -0.000939   -0.000527
   -1   -1   -1   13    7    0.000316    0.004619
   -1   -1   -1   14    7    0.012893   -0.034595
   -1   -1   -1   15    7   -0.002347   -0.031276
   -1   -1   -1   16    7    0.053445   -0.027885
   -1   -1   -1   17    7    0.012222    0.029389
   -1   -1   -1   18    7   -0.014121   -0.083914
   -1   -1   -1   19    7    0.009718    0.012521
   -1   -1   -1   20    7   -0.006452    0.004024
   -1   -1   -1   21    7   -0.001146    0.010391
   -1   -1   -1   22    7   -0.003904   -0.010047
   -1   -1   -1    1    8    0.035089   -0.048276
   -1   -1   -1    2    8    0.022693    0.056777
   -1   -1   -1    3    8   -0.023397    0.001230
   -1   -1   -1    4    8    0.012381   -0.006783
   -1   -1   -1    5    8   -0.023949   -0.006631
   -1   -1   -1    6    8   -0.001216    0.005282
   -1   -1   -1    7    8   -0.014051    0.066326
   -1   -1   -1    8    8    0.029043    0.000000
   -1   -1   -1    9    8    0.002284   -0.004863
   -1   -1   -1   10    8   -0.005039    0.001460
   -1   -1   -1   11    8   -0.023805   -0.032700
   -1   -1   -1   12    8   -0.003150    0.001043
   -1   -1   -1   13    8   -0.004030   -0.001376
   -1   -1   -1   14    8   -0.009493    0.046099
   -1   -1   -1   15    8   -0.030189    0.104512
   -1   -1   -1   16    8    0.050376   -0.084543
   -1   -1   -1   17    8    0.008580   -0.002864
   -1   -1   -1   18    8   -0.018857    0.071175
   -1   -1   -1   19    8   -0.001637   -0.038855
   -1   -1   -1   20    8   -0.022434   -0.018257
   -1   -1   -1   21    8    0.016855    0.002392
   -1   -1   -1   22    8    0.006275   -0.005949
   -1   -1   -1    1    9   -0.002836    0.002832
   -1   -1   -1    2    9    0.018935   -0.025254
   -1   -1   -1    3    9    0.012247   -0.010214
   -1   -1   -1    4    9    0.019416    0.008401
   -1   -1   -1    5    9   -0.016301    0.002815
   -1   -1   -1    6    9   -0.000466   -0.000680
   -1   -1   -1    7    9    0.005727   -0.002381
   -1   -1   -1    8    9    0.002284    0.004863
   -1   -1   -1    9    9    0.003883   -0.000000
   -1   -1   -1   10    9   -0.001823   -0.001244
   -1   -1   -1   11    9   -0.001636   -0.000361
   -1   -1   -1   12    9   -0.032169   -0.005139
   -1   -1   -1   13    9   -0.022444   -0.016126
   -1   -1   -1   14    9    0.002053   -0.003170
   -1   -1   -1   15    9    0.000333    0.004826
   -1   -1   -1   16    9   -0.019773   -0.002536
   -1   -1   -1   17    9   -0.007177    0.007595
   -1   -1   -1   18    9    0.058173   -0.023436
   -1   -1   -1   19    9   -0.004824    0.013598
   -1   -1   -1   20    9   -0.001582   -0.002071
   -1   -1   -1   21    9   -0.029760    0.008259
   -1   -1   -1   22    9   -0.018649   -0.007388
   -1   -1   -1    1   10   -0.000805   -0.001088
   -1   -1   -1    2   10   -0.023034    0.009486
   -1   -1   -1    3   10    0.009814   -0.009813
   -1   -1   -1    4   10    0.002367   -0.004478
   -1   -1   -1    5   10   -0.006744   -0.005243
   -1   -1   -1    6   10   -0.000395    0.001113
   -1   -1   -1    7   10    0.005122   -0.000430
   -1   -1   -1    8   10   -0.005039   -0.001460
   -1   -1   -1    9   10   -0.001823    0.001244
   -1   -1   -1   10   10    0.001078    0.000000
   -1   -1   -1   11   10    0.001576    0.002807
   -1   -1   -1   12   10    0.004425    0.001164
   -1   -1   -1   13   10    0.002920    0.002000
   -1   -1   -1   14   10   -0.030596   -0.003157
   -1   -1   -1   15   10   -0.002060    0.008530
   -1   -1   -1   16   10    0.011714    0.016184
   -1   -1   -1   17   10   -0.001539    0.003673
   -1   -1   -1   18   10   -0.002852    0.003931
   -1   -1   -1   19   10    0.006378    0.003265
   -1   -1   -1   20   10   -0.002104   -0.001234
   -1   -1   -1   21   10   -0.005444    0.005470
   -1   -1   -1   22   10   -0.005576   -0.002220
   -1   -1   -1    1   11    0.044994   -0.009349
   -1   -1   -1    2   11   -0.073279    0.064347
   -1   -1   -1    3   11    0.036208   -0.036624
   -1   -1   -1    4   11   -0.020079   -0.000368
   -1   -1   -1    5   11    0.021884    0.004951
   -1   -1   -1    6   11    0.001567   -0.001367
   -1   -1   -1    7   11   -0.009040   -0.010775
   -1   -1   -1    8   11   -0.023805    0.032700
   -1   -1   -1    9   11   -0.001636    0.000361
   -1   -1   -1   10   11    0.001576   -0.002807
   -1   -1   -1   11   11    0.010032    0.000000
   -1   -1   -1   12   11   -0.001458    0.001285
   -1   -1   -1   13   11   -0.000394    0.000676
   -1   -1   -1   14   11    0.032112   -0.014372
   -1   -1   -1   15   11   -0.041378   -0.021814
   -1   -1   -1   16   11   -0.004976    0.027548
   -1   -1   -1   17   11    0.027053   -0.014269
   -1   -1   -1   18   11    0.007623    0.032613
   -1   -1   -1   19   11    0.006028   -0.039548
   -1   -1   -1   20   11    0.004920    0.000118
   -1   -1   -1   21   11    0.003415    0.000782
   -1   -1   -1   22   11   -0.003688    0.003880
   -1   -1   -1    1   12    0.011238    0.001473
   -1   -1   -1    2   12   -0.003905   -0.013656
   -1   -1   -1    3   12   -0.008147   -0.023270
   -1   -1   -1    4   12   -0.003479    0.005268
   -1   -1   -1    5   12   -0.003732   -0.007615
   -1   -1   -1    6   12    0.000182   -0.000468
   -1   -1   -1    7   12   -0.000939    0.000527
   -1   -1   -1    8   12   -0.003150   -0.001043
   -1   -1   -1    9   12   -0.032169    0.005139
   -1   -1   -1   10   12    0.004425   -0.001164
   -1   -1   -1   11   12   -0.001458   -0.001285
   -1   -1   -1   12   12    0.000917    0.000000
   -1   -1   -1   13   12   -0.004969    0.000994
   -1   -1   -1   14   12    0.017244    0.001610
   -1   -1   -1   15   12   -0.018589    0.010773
   -1   -1   -1   16   12    0.007612   -0.013999
   -1   -1   -1   17   12   -0.003188   -0.001950
   -1   -1   -1   18   12    0.013903   -0.004503
   -1   -1   -1   19   12    0.006251    0.011616
   -1   -1   -1   20   12    0.000343    0.002613
   -1   -1   -1   21   12    0.001218   -0.002267
   -1   -1   -1   22   12   -0.002455    0.002437
   -1   -1   -1    1   13   -0.000927    0.008233
   -1   -1   -1    2   13   -0.021132   -0.033983
   -1   -1   -1    3   13    0.036949    0.012099
   -1   -1   -1    4   13    0.003607    0.007562
   -1   -1   -1    5   13   -0.009106    0.007764
   -1   -1   -1    6   13    0.001705    0.000294
   -1   -1   -1    7   13    0.000316   -0.004619
   -1   -1   -1    8   13   -0.004030    0.001376
   -1   -1   -1    9   13   -0.022444    0.016126
   -1   -1   -1   10   13    0.002920   -0.002000
   -1   -1   -1   11   13   -0.000394   -0.000676
   -1   -1   -1   12   13   -0.004969   -0.000994
   -1   -1   -1   13   13   -0.005362    0.000000
   -1   -1   -1   14   13    0.000290   -0.009140
   -1   -1   -1   15   13   -0.006307   -0.018171
   -1   -1   -1   16   13    0.005062   -0.003425
   -1   -1   -1   17   13   -0.007052    0.000705
   -1   -1   -1   18   13    0.002338   -0.003460
   -1   -1   -1   19   13   -0.004327    0.007783
   -1   -1   -1   20   13    0.003553    0.000838
   -1   -1   -1   21   13   -0.003800   -0.001312
   -1   -1   -1   22   13   -0.002763    0.001311
   -1   -1   -1    1   14   -0.007626    0.001538
   -1   -1   -1    2   14    0.035464    0.035335
   -1   -1   -1    3   14    0.010910    0.012065
   -1   -1   -1    4   14    0.007468    0.003239
   -1   -1   -1    5   14    0.002185   -0.001249
   -1   -1   -1    6   14   -0.022521    0.000209
   -1   -1   -1    7   14    0.012893    0.034595
   -1   -1   -1    8   14   -0.009493   -0.046099
   -1   -1   -1    9   14    0.002053    0.003170
   -1   -1   -1   10   14   -0.030596    0.003157
   -1   -1   -1   11   14    0.032112    0.014372
   -1   -1   -1   12   14    0.017244   -0.001610
   -1   -1   -1   13   14    0.000290    0.009140
   -1   -1   -1   14   14    0.010637    0.000000
   -1   -1   -1   15   14    0.053709    0.010327
   -1   -1   -1   16   14   -0.015158    0.003865
   -1   -1   -1   17   14   -0.003270    0.005348
   -1   -1   -1   18   14    0.001165    0.011480
   -1   -1   -1   19   14   -0.002105   -0.007061
   -1   -1   -1   20   14   -0.045577    0.008219
   -1   -1   -1   21   14   -0.019228    0.003637
   -1   -1   -1   22   14   -0.005114   -0.005007
   -1   -1   -1    1   15    0.011544    0.011072
   -1   -1   -1    2   15   -0.078032   -0.123193
   -1   -1   -1    3   15    0.110253    0.016913
   -1   -1   -1    4   15    0.001519   -0.021666
   -1   -1   -1    5   15   -0.007559    0.020125
   -1   -1   -1    6   15   -0.003115    0.014394
   -1   -1   -1    7   15   -0.002347    0.031276
   -1   -1   -1    8   15   -0.030189   -0.104512
   -1   -1   -1    9   15    0.000333   -0.004826
   -1   -1   -1   10   15   -0.002060   -0.008530
   -1   -1   -1   11   15   -0.041378    0.021814
   -1   -1   -1   12   15   -0.018589   -0.010773
   -1   -1   -1   13   15   -0.006307    0.018171
   -1   -1   -1   14   15    0.053709   -0.010327
   -1   -1   -1   15   15   -0.117358   -0.000000
   -1   -1   -1   16   15    0.028277   -0.000450
   -1   -1   -1   17   15    0.040368   -0.008136
   -1   -1   -1   18   15   -0.042997   -0.040969
   -1   -1   -1   19   15    0.029467    0.075583
   -1   -1   -1   20   15   -0.004896   -0.023026
   -1   -1   -1   21   15   -0.028978   -0.000078
   -1   -1   -1   22   15    0.017086   -0.051490
   -1   -1   -1    1   16   -0.002590    0.003827
   -1   -1   -1    2   16    0.011874   -0.035673
   -1   -1   -1    3   16    0.003725   -0.002325
   -1   -1   -1    4   16    0.005411    0.009411
   -1   -1   -1    5   16    0.002482   -0.002396
   -1   -1   -1    6   16   -0.002980   -0.007438
   -1   -1   -1    7   16    0.053445    0.027885
   -1   -1   -1    8   16    0.050376    0.084543
   -1   -1   -1    9   16   -0.019773    0.002536
   -1   -1   -1   10   16    0.011714   -0.016184
   -1   -1   -1   11   16   -0.004976   -0.027548
   -1   -1   -1   12   16    0.007612    0.013999
   -1   -1   -1   13   16    0.005062    0.003425
   -1   -1   -1   14   16   -0.015158   -0.003865
   -1   -1   -1   15   16    0.028277    0.000450
   -1   -1   -1   16   16   -0.017608   -0.000000
   -1   -1   -1   17   16   -0.003248    0.020564
   -1   -1   -1   18   16    0.000400   -0.015048
   -1   -1   -1   19   16    0.020687   -0.002348
   -1   -1   -1   20   16    0.005435   -0.005827
   -1   -1   -1   21   16    0.003967    0.014477
   -1   -1   -1   22   16   -0.019088    0.013210
   -1   -1   -1    1   17    0.002686    0.000972
   -1   -1   -1    2   17    0.035348    0.033787
   -1   -1   -1    3   17    0.003934    0.021201
   -1   -1   -1    4   17   -0.002540   -0.006563
   -1   -1   -1    5   17    0.003213   -0.005131
   -1   -1   -1    6   17   -0.002024    0.003690
   -1   -1   -1    7   17    0.012222   -0.029389
   -1   -1   -1    8   17    0.008580    0.002864
   -1   -1   -1    9   17   -0.007177   -0.007595
   -1   -1   -1   10   17   -0.001539   -0.003673
   -1   -1   -1   11   17    0.027053    0.014269
   -1   -1   -1   12   17   -0.003188    0.001950
   -1   -1   -1   13   17   -0.007052   -0.000705
   -1   -1   -1   14   17   -0.003270   -0.005348
   -1   -1   -1   15   17    0.040368    0.008136
   -1   -1   -1   16   17   -0.003248   -0.020564
   -1   -1   -1   17   17    0.013716   -0.000000
   -1   -1   -1   18   17   -0.019955    0.019446
   -1   -1   -1   19   17    0.001657   -0.011780
   -1   -1   -1   20   17    0.009264    0.004835
   -1   -1   -1   21   17    0.003295   -0.002993
   -1   -1   -1   22   17   -0.009144   -0.006542
   -1   -1   -1    1   18   -0.001028    0.007521
   -1   -1   -1    2   18   -0.008831    0.113865
   -1   -1   -1    3   18   -0.014030   -0.104829
   -1   -1   -1    4   18   -0.011046    0.006813
   -1   -1   -1    5   18    0.002772   -0.018570
   -1   -1   -1    6   18   -0.001256   -0.006242
   -1   -1   -1    7   18   -0.014121    0.083914
   -1   -1   -1    8   18   -0.018857   -0.071175
   -1   -1   -1    9   18    0.058173    0.023436
   -1   -1   -1   10   18   -0.002852   -0.003931
   -1   -1   -1   11   18    0.007623   -0.032613
   -1   -1   -1   12   18    0.013903    0.004503
   -1   -1   -1   13   18    0.002338    0.003460
   -1   -1   -1   14   18    0.001165   -0.011480
   -1   -1   -1   15   18   -0.042997    0.040969
   -1   -1   -1   16   18    0.000400    0.015048
   -1   -1   -1   17   18   -0.019955   -0.019446
   -1   -1   -1   18   18    0.050822   -0.000000
   -1   -1   -1   19   18   -0.001427   -0.056238
   -1   -1   -1   20   18   -0.032829   -0.005553
   -1   -1   -1   21   18    0.012236    0.002413
   -1   -1   -1   22   18   -0.017824    0.007475
   -1   -1   -1    1   19   -0.004371    0.005770
   -1   -1   -1    2   19    0.028867   -0.014671
   -1   -1   -1    3   19   -0.042337    0.009993
   -1   -1   -1    4   19    0.009125   -0.003378
   -1   -1   -1    5   19    0.005940   -0.001427
   -1   -1   -1    6   19    0.001449    0.004178
   -1   -1   -1    7   19    0.009718   -0.012521
   -1   -1   -1    8   19   -0.001637    0.038855
   -1   -1   -1    9   19   -0.004824   -0.013598
   -1   -1   -1   10   19    0.006378   -0.003265
   -1   -1   -1   11   19    0.006028    0.039548
   -1   -1   -1   12   19    0.006251   -0.011616
   -1   -1   -1   13   19   -0.004327   -0.007783
   -1   -1   -1   14   19   -0.002105    0.007061
   -1   -1   -1   15   19    0.029467   -0.075583
   -1   -1   -1   16   19    0.020687    0.002348
   -1   -1   -1   17   19    0.001657    0.011780
   -1   -1   -1   18   19   -0.001427    0.056238
   -1   -1   -1   19   19   -0.014431    0.000000
   -1   -1   -1   20   19    0.015334    0.008208
   -1   -1   -1   21   19   -0.009144   -0.007019
   -1   -1   -1   22   19   -0.013387   -0.002506
   -1   -1   -1    1   20    0.008624    0.003227
   -1   -1   -1    2   20   -0.060747    0.002264
   -1   -1   -1    3   20   -0.013069   -0.033814
   -1   -1   -1    4   20   -0.002953   -0.001387
   -1   -1   -1    5   20    0.000702   -0.001041
   -1   -1   -1    6   20   -0.002404   -0.000769
   -1   -1   -1    7   20   -0.006452   -0.004024
   -1   -1   -1    8   20   -0.022434    0.018257
   -1   -1   -1    9   20   -0.001582    0.002071
   -1   -1   -1   10   20   -0.002104    0.001234
   -1   -1   -1   11   20    0.004920   -0.000118
   -1   -1   -1   12   20    0.000343   -0.002613
   -1   -1   -1   13   20    0.003553   -0.000838
   -1   -1   -1   14   20   -0.045577   -0.008219
   -1   -1   -1   15   20   -0.004896    0.023026
   -1   -1   -1   16   20    0.005435    0.005827
   -1   -1   -1   17   20    0.009264   -0.004835
   -1   -1   -1   18   20   -0.032829    0.005553
   -1   -1   -1   19   20    0.015334   -0.008208
   -1   -1   -1   20   20   -0.002236    0.000000
   -1   -1   -1   21   20   -0.002660    0.001963
   -1   -1   -1   22   20   -0.003855    0.002810
   -1   -1   -1    1   21   -0.003983    0.000328
   -1   -1   -1    2   21    0.028397   -0.003563
   -1   -1   -1    3   21   -0.022084   -0.032847
   -1   -1   -1    4   21   -0.002639   -0.001798
   -1   -1   -1    5   21    0.022002   -0.000883
   -1   -1   -1    6   21    0.000339    0.000379
   -1   -1   -1    7   21   -0.001146   -0.010391
   -1   -1   -1    8   21    0.016855   -0.002392
   -1   -1   -1    9   21   -0.029760   -0.008259
   -1   -1   -1   10   21   -0.005444   -0.005470
   -1   -1   -1   11   21    0.003415   -0.000782
   -1   -1   -1   12   21    0.001218    0.002267
   -1   -1   -1   13   21   -0.003800    0.001312
   -1   -1   -1   14   21   -0.019228   -0.003637
   -1   -1   -1   15   21   -0.028978    0.000078
   -1   -1   -1   16   21    0.003967   -0.014477
   -1   -1   -1   17   21    0.003295    0.002993
   -1   -1   -1   18   21    0.012236   -0.002413
   -1   -1   -1   19   21   -0.009144    0.007019
   -1   -1   -1   20   21   -0.002660   -0.001963
   -1   -1   -1   21   21    0.002392   -0.000000
   -1   -1   -1   22   21   -0.003930   -0.001187
   -1   -1   -1    1   22   -0.003034   -0.002429
   -1   -1   -1    2   22   -0.005644   -0.010716
   -1   -1   -1    3   22   -0.004203    0.004269
   -1   -1   -1    4   22    0.009032    0.000575
   -1   -1   -1    5   22    0.022865   -0.003862
   -1   -1   -1    6   22   -0.002415   -0.000334
   -1   -1   -1    7   22   -0.003904    0.010047
   -1   -1   -1    8   22    0.006275    0.005949
   -1   -1   -1    9   22   -0.018649    0.007388
   -1   -1   -1   10   22   -0.005576    0.002220
   -1   -1   -1   11   22   -0.003688   -0.003880
   -1   -1   -1   12   22   -0.002455   -0.002437
   -1   -1   -1   13   22   -0.002763   -0.001311
   -1   -1   -1   14   22   -0.005114    0.005007
   -1   -1   -1   15   22    0.017086    0.051490
   -1   -1   -1   16   22   -0.019088   -0.013210
   -1   -1   -1   17   22   -0.009144    0.006542
   -1   -1   -1   18   22   -0.017824   -0.007475
   -1   -1   -1   19   22   -0.013387    0.002506
   -1   -1   -1   20   22   -0.003855   -0.002810
   -1   -1   -1   21   22   -0.003930    0.001187
   -1   -1   -1   22   22   -0.003982    0.000000
   -1   -1    0    1    1   -0.441048    0.000000
   -1   -1    0    2    1    0.016585   -0.108363
   -1   -1    0    3    1   -0.054464   -0.028945
   -1   -1    0    4    1   -0.625508   -0.104466
   -1   -1    0    5    1    0.338932   -0.003566
   -1   -1    0    6    1   -0.012490    0.000103
   -1   -1    0    7    1    0.030451    0.000569
   -1   -1    0    8    1   -0.055493   -0.051521
   -1   -1    0    9    1   -0.002557   -0.000763
   -1   -1    0   10    1    0.000102   -0.000131
   -1   -1    0   11    1   -0.010122    0.002124
   -1   -1    0   12    1   -0.001044    0.001550
   -1   -1    0   13    1    0.006488    0.004398
   -1   -1    0   14    1    0.181048   -0.008031
   -1   -1    0   15    1    0.064001   -0.052437
   -1   -1    0   16    1    0.006480   -0.040813
   -1   -1    0   17    1   -0.159594    0.021582
   -1   -1    0   18    1   -0.025914    0.039873
   -1   -1    0   19    1   -0.026920    0.041106
   -1   -1    0   20    1   -0.049689    0.004846
   -1   -1    0   21    1    0.007045   -0.009742
   -1   -1    0   22    1   -0.005673   -0.007608
   -1   -1    0    1    2    0.016585    0.108363
   -1   -1    0    2    2    1.966403   -0.000000
   -1   -1    0    3    2   -0.517727    0.442674
   -1   -1    0    4    2    0.044555    0.048129
   -1   -1    0    5    2   -0.087600   -0.091764
   -1   -1    0    6    2   -0.019457   -0.006651
   -1   -1    0    7    2   -0.084921    0.149472
   -1   -1    0    8    2    0.090756    0.038116
   -1   -1    0    9    2    0.014484   -0.017676
   -1   -1    0   10    2    0.009032    0.002355
   -1   -1    0   11    2   -0.050990   -0.014829
   -1   -1    0   12    2    0.008435   -0.018486
   -1   -1    0   13    2    0.017429   -0.016346
   -1   -1    0   14    2   -0.164390   -0.241717
   -1   -1    0   15    2    0.106465   -0.026283
   -1   -1    0   16    2   -0.058490    0.665323
   -1   -1    0   17    2    0.043513   -0.205959
   -1   -1    0   18    2    0.145005    0.145439
   -1   -1    0   19    2   -0.248828   -0.434080
   -1   -1    0   20    2   -0.034679   -0.038185
   -1   -1    0   21    2    0.014925    0.007795
   -1   -1    0   22    2    0.029993   -0.013386
   -1   -1    0    1    3   -0.054464    0.028945
   -1   -1    0    2    3   -0.517727   -0.442674
   -1   -1    0    3    3   -0.921983    0.000000
   -1   -1    0    4    3   -0.164779   -0.186041
   -1   -1    0    5    3   -0.055949    0.046569
   -1   -1    0    6    3    0.008221    0.004325
   -1   -1    0    7    3    0.134218    0.013236
   -1   -1    0    8    3    0.109150   -0.062543
   -1   -1    0    9    3   -0.002337   -0.002132
   -1   -1    0   10    3   -0.007081   -0.005085
   -1   -1    0   11    3   -0.001191    0.027800
   -1   -1    0   12    3   -0.004063   -0.032527
   -1   -1    0   13    3   -0.006907    0.008476
   -1   -1    0   14    3    0.115000    0.476887
   -1   -1    0   15    3    0.197489    0.332068
   -1   -1    0   16    3   -0.440314   -0.401137
   -1   -1    0   17    3    0.092150    0.564959
   -1   -1    0   18    3   -0.061296   -0.753098
   -1   -1    0   19    3    0.465318    0.584083
   -1   -1    0   20    3   -0.018113    0.054373
   -1   -1    0   21    3    0.009544   -0.002879
   -1   -1    0   22    3   -0.023743   -0.009414
   -1   -1    0    1    4   -0.625508    0.104466
   -1   -1    0    2    4    0.044555   -0.048129
   -1   -1    0    3    4   -0.164779    0.186041
   -1   -1    0    4    4   -0.298174    0.000000
   -1   -1    0    5    4    0.487978   -0.049972
   -1   -1    0    6    4   -0.000514   -0.000845
   -1   -1    0    7    4    0.001763    0.010701
   -1   -1    0    8    4    0.027197   -0.032231
   -1   -1    0    9    4   -0.037089    0.010000
   -1   -1    0   10    4    0.004395   -0.003026
   -1   -1    0   11    4    0.003751   -0.002556
   -1   -1    0   12    4    0.001977   -0.001587
   -1   -1    0   13    4    0.004227    0.001198
   -1   -1    0   14    4    0.033097    0.006548
   -1   -1    0   15    4   -0.028750   -0.154420
   -1   -1    0   16    4    0.643882   -0.020677
   -1   -1    0   17    4    0.052433   -0.004059
   -1   -1    0   18    4   -0.340437    0.138924
   -1   -1    0   19    4    0.052931    0.062871
   -1   -1    0   20    4    0.021476   -0.008010
   -1   -1    0   21    4   -0.008632    0.001426
   -1   -1    0   22    4   -0.007768   -0.002577
   -1   -1    0    1    5    0.338932    0.003566
   -1   -1    0    2    5   -0.087600    0.091764
   -1   -1    0    3    5   -0.055949   -0.046569
   -1   -1    0    4    5    0.487978    0.049972
   -1   -1    0    5    5    0.241479   -0.000000
   -1   -1    0    6    5    0.000950    0.001292
   -1   -1    0    7    5   -0.013853    0.003261
   -1   -1    0    8    5    0.019626    0.001840
   -1   -1    0    9    5   -0.006924   -0.001506
   -1   -1    0   10    5    0.000835   -0.011082
   -1   -1    0   11    5   -0.001859    0.000777
   -1   -1    0   12    5    0.019441    0.003668
   -1   -1    0   13    5    0.024792    0.002500
   -1   -1    0   14    5    0.013360   -0.016335
   -1   -1    0   15    5    0.141465    0.122848
   -1   -1    0   16    5    0.018282   -0.046900
   -1   -1    0   17    5    0.057299   -0.055490
   -1   -1    0   18    5    0.225472   -0.053115
   -1   -1    0   19    5    0.142433    0.022339
   -1   -1    0   20    5    0.002092   -0.003990
   -1   -1    0   21    5   -0.010995   -0.001584
   -1   -1    0   22    5   -0.004449   -0.007945
   -1   -1    0    1    6   -0.012490   -0.000103
   -1   -1    0    2    6   -0.019457    0.006651
   -1   -1    0    3    6    0.008221   -0.004325
   -1   -1    0    4    6   -0.000514    0.000845
   -1   -1    0    5    6    0.000950   -0.001292
   -1   -1    0    6    6   -0.491882   -0.000000
   -1   -1    0    7    6    0.003130    0.014451
   -1   -1    0    8    6    0.001668    0.009717
   -1   -1    0    9    6   -0.309877   -0.066915
   -1   -1    0   10    6    0.660871    0.027994
   -1   -1    0   11    6   -0.151400    0.010566
   -1   -1    0   12    6   -0.001359    0.009543
   -1   -1    0   13    6   -0.012055    0.010001
   -1   -1    0   14    6    0.006447   -0.001127
   -1   -1    0   15    6    0.011701    0.011124
   -1   -1    0   16    6   -0.001365    0.001088
   -1   -1    0   17    6    0.026729    0.000109
   -1   -1    0   18    6   -0.006527   -0.000049
   -1   -1    0   19    6    0.006968   -0.002171
   -1   -1    0   20    6    0.146679    0.009811
   -1   -1    0   21    6   -0.003335   -0.003481
   -1   -1    0   22    6   -0.003506   -0.021960
   -1   -1    0    1    7    0.030451   -0.000569
   -1   -1    0    2    7   -0.084921   -0.149472
   -1   -1    0    3    7    0.134218   -0.013236
   -1   -1    0    4    7    0.001763   -0.010701
   -1   -1    0    5    7   -0.013853   -0.003261
   -1   -1    0    6    7    0.003130   -0.014451
   -1   -1    0    7    7   -1.307683    0.000000
   -1   -1    0    8    7    0.309879    1.419739
   -1   -1    0    9    7    0.005406   -0.017497
   -1   -1    0   10    7    0.044442    0.196463
   -1   -1    0   11    7    0.005512    0.148106
   -1   -1    0   12    7    0.194951    0.044482
   -1   -1    0   13    7   -0.106042   -0.031993
   -1   -1    0   14    7    0.021050    0.031362
   -1   -1    0   15    7   -0.115504   -0.035884
   -1   -1    0   16    7    0.003031    0.007103
   -1   -1    0   17    7    0.033368   -0.031476
   -1   -1    0   18    7   -0.112971   -0.003924
   -1   -1    0   19    7   -0.000167    0.091861
   -1   -1    0   20    7    0.016731    0.138158
   -1   -1    0   21    7   -0.154497   -0.031805
   -1   -1    0   22    7    0.154785    0.046108
   -1   -1    0    1    8   -0.055493    0.051521
   -1   -1    0    2    8    0.090756   -0.038116
   -1   -1    0    3    8    0.109150    0.062543
   -1   -1    0    4    8    0.027197    0.032231
   -1   -1    0    5    8    0.019626   -0.001840
   -1   -1    0    6    8    0.001668   -0.009717
   -1   -1    0    7    8    0.309879   -1.419739
   -1   -1    0    8    8    0.998758   -0.000000
   -1   -1    0    9    8    0.013480    0.001701
   -1   -1    0   10    8   -0.014367    0.030672
   -1   -1    0   11    8   -0.485318   -0.115560
   -1   -1    0   12    8    0.278664    0.193257
   -1   -1    0   13    8    0.414759   -0.257053
   -1   -1    0   14    8   -0.008459    0.016551
   -1   -1    0   15    8    0.136650   -0.014660
   -1   -1    0   16    8   -0.062385    0.052229
   -1   -1    0   17    8   -0.043899    0.094090
   -1   -1    0   18    8    0.130491   -0.169614
   -1   -1    0   19    8   -0.093233    0.053217
   -1   -1    0   20    8   -0.606372    0.004151
   -1   -1    0   21    8   -0.374069   -0.151104
   -1   -1    0   22    8   -0.408982    0.234050
   -1   -1    0    1    9   -0.002557    0.000763
   -1   -1    0    2    9    0.014484    0.017676
   -1   -1    0    3    9   -0.002337    0.002132
   -1   -1    0    4    9   -0.037089   -0.010000
   -1   -1    0    5    9   -0.006924    0.001506
   -1   -1    0    6    9   -0.309877    0.066915
   -1   -1    0    7    9    0.005406    0.017497
   -1   -1    0    8    9    0.013480   -0.001701
   -1   -1    0    9    9    0.847461   -0.000000
   -1   -1    0   10    9    0.483354   -0.066638
   -1   -1    0   11    9    0.036742    0.001723
   -1   -1    0   12    9   -0.049771   -0.029897
   -1   -1    0   13    9   -0.491982    0.011789
   -1   -1    0   14    9    0.000229    0.000213
   -1   -1    0   15    9    0.044171    0.006989
   -1   -1    0   16    9   -0.010587    0.009260
   -1   -1    0   17    9   -0.009599    0.002642
   -1   -1    0   18    9   -0.005248   -0.003770
   -1   -1    0   19    9   -0.002369   -0.009543
   -1   -1    0   20    9   -0.020597    0.008977
   -1   -1    0   21    9   -0.068843   -0.052114
   -1   -1    0   22    9   -0.502343    0.000294
   -1   -1    0    1   10    0.000102    0.000131
   -1   -1    0    2   10    0.009032   -0.002355
   -1   -1    0    3   10   -0.007081    0.005085
   -1   -1    0    4   10    0.004395    0.003026
   -1   -1    0    5   10    0.000835    0.011082
   -1   -1    0    6   10    0.660871   -0.027994
   -1   -1    0    7   10    0.044442   -0.196463
   -1   -1    0    8   10   -0.014367   -0.030672
   -1   -1    0    9   10    0.483354    0.066638
   -1   -1    0   10   10   -0.360145   -0.000000
   -1   -1    0   11   10   -0.086191   -0.043518
   -1   -1    0   12   10   -0.566616   -0.261940
   -1   -1    0   13   10   -0.034546   -0.182644
   -1   -1    0   14   10    0.007005    0.000291
   -1   -1    0   15   10    0.013292    0.003178
   -1   -1    0   16   10   -0.002831    0.002702
   -1   -1    0   17   10    0.031867   -0.006779
   -1   -1    0   18   10   -0.022975   -0.009633
   -1   -1    0   19   10    0.013905   -0.015127
   -1   -1    0   20   10   -0.032204   -0.076295
   -1   -1    0   21   10   -0.496092    0.240679
   -1   -1    0   22   10    0.138693    0.072982
   -1   -1    0    1   11   -0.010122   -0.002124
   -1   -1    0    2   11   -0.050990    0.014829
   -1   -1    0    3   11   -0.001191   -0.027800
   -1   -1    0    4   11    0.003751    0.002556
   -1   -1    0    5   11   -0.001859   -0.000777
   -1   -1    0    6   11   -0.151400   -0.010566
   -1   -1    0    7   11    0.005512   -0.148106
   -1   -1    0    8   11   -0.485318    0.115560
   -1   -1    0    9   11    0.036742   -0.001723
   -1   -1    0   10   11   -0.086191    0.043518
   -1   -1    0   11   11   -0.181010   -0.000000
   -1   -1    0   12   11    0.034850    0.008307
   -1   -1    0   13   11   -0.085719   -0.031557
   -1   -1    0   14   11    0.002389   -0.002127
   -1   -1    0   15   11    0.019476    0.027836
   -1   -1    0   16   11   -0.012022    0.014847
   -1   -1    0   17   11   -0.023966   -0.002316
   -1   -1    0   18   11   -0.003447    0.020689
   -1   -1    0   19   11    0.003756   -0.008927
   -1   -1    0   20   11    0.017120    0.006008
   -1   -1    0   21   11   -0.106484   -0.008894
   -1   -1    0   22   11    0.072438   -0.012510
   -1   -1    0    1   12   -0.001044   -0.001550
   -1   -1    0    2   12    0.008435    0.018486
   -1   -1    0    3   12   -0.004063    0.032527
   -1   -1    0    4   12    0.001977    0.001587
   -1   -1    0    5   12    0.019441   -0.003668
   -1   -1    0    6   12   -0.001359   -0.009543
   -1   -1    0    7   12    0.194951   -0.044482
   -1   -1    0    8   12    0.278664   -0.193257
   -1   -1    0    9   12   -0.049771    0.029897
   -1   -1    0   10   12   -0.566616    0.261940
   -1   -1    0   11   12    0.034850   -0.008307
   -1   -1    0   12   12    0.244519    0.000000
   -1   -1    0   13   12    0.496599   -0.008989
   -1   -1    0   14   12    0.004671   -0.002368
   -1   -1    0   15   12    0.018930    0.003347
   -1   -1    0   16   12   -0.007813    0.009989
   -1   -1    0   17   12    0.012580    0.000112
   -1   -1    0   18   12   -0.020070    0.023140
   -1   -1    0   19   12    0.002380   -0.021802
   -1   -1    0   20   12    0.057554   -0.030446
   -1   -1    0   21   12   -0.523672    0.066295
   -1   -1    0   22   12    0.257340   -0.022005
   -1   -1    0    1   13    0.006488   -0.004398
   -1   -1    0    2   13    0.017429    0.016346
   -1   -1    0    3   13   -0.006907   -0.008476
   -1   -1    0    4   13    0.004227   -0.001198
   -1   -1    0    5   13    0.024792   -0.002500
   -1   -1    0    6   13   -0.012055   -0.010001
   -1   -1    0    7   13   -0.106042    0.031993
   -1   -1    0    8   13    0.414759    0.257053
   -1   -1    0    9   13   -0.491982   -0.011789
   -1   -1    0   10   13   -0.034546    0.182644
   -1   -1    0   11   13   -0.085719    0.031557
   -1   -1    0   12   13    0.496599    0.008989
   -1   -1    0   13   13    0.847346   -0.000000
   -1   -1    0   14   13    0.000865   -0.002325
   -1   -1    0   15   13   -0.049454   -0.002951
   -1   -1    0   16   13   -0.008262    0.005454
   -1   -1    0   17   13    0.003926   -0.006602
   -1   -1    0   18   13   -0.020630    0.029716
   -1   -1    0   19   13   -0.014651   -0.008041
   -1   -1    0   20   13   -0.043649   -0.029335
   -1   -1    0   21   13    0.194902    0.051729
   -1   -1    0   22   13   -0.250353   -0.003557
   -1   -1    0    1   14    0.181048    0.008031
   -1   -1    0    2   14   -0.164390    0.241717
   -1   -1    0    3   14    0.115000   -0.476887
   -1   -1    0    4   14    0.033097   -0.006548
   -1   -1    0    5   14    0.013360    0.016335
   -1   -1    0    6   14    0.006447    0.001127
   -1   -1    0    7   14    0.021050   -0.031362
   -1   -1    0    8   14   -0.008459   -0.016551
   -1   -1    0    9   14    0.000229   -0.000213
   -1   -1    0   10   14    0.007005   -0.000291
   -1   -1    0   11   14    0.002389    0.002127
   -1   -1    0   12   14    0.004671    0.002368
   -1   -1    0   13   14    0.000865    0.002325
   -1   -1    0   14   14   -0.109809    0.000000
   -1   -1    0   15   14   -0.174534   -0.109145
   -1   -1    0   16   14    0.143407    0.043570
   -1   -1    0   17   14    0.152387   -0.006546
   -1   -1    0   18   14   -0.023816    0.075687
   -1   -1    0   19   14    0.096639   -0.062205
   -1   -1    0   20   14    0.008336    0.017158
   -1   -1    0   21   14    0.006513   -0.007547
   -1   -1    0   22   14   -0.004760   -0.004246
   -1   -1    0    1   15    0.064001    0.052437
   -1   -1    0    2   15    0.106465    0.026283
   -1   -1    0    3   15    0.197489   -0.332068
   -1   -1    0    4   15   -0.028750    0.154420
   -1   -1    0    5   15    0.141465   -0.122848
   -1   -1    0    6   15    0.011701   -0.011124
   -1   -1    0    7   15   -0.115504    0.035884
   -1   -1    0    8   15    0.136650    0.014660
   -1   -1    0    9   15    0.044171   -0.006989
   -1   -1    0   10   15    0.013292   -0.003178
   -1   -1    0   11   15    0.019476   -0.027836
   -1   -1    0   12   15    0.018930   -0.003347
   -1   -1    0   13   15   -0.049454    0.002951
   -1   -1    0   14   15   -0.174534    0.109145
   -1   -1    0   15   15   -0.564231    0.000000
   -1   -1    0   16   15    0.849924   -0.007959
   -1   -1    0   17   15   -0.169241    0.099849
   -1   -1    0   18   15    0.549288   -0.325357
   -1   -1    0   19   15    0.085561    0.077452
   -1   -1    0   20   15   -0.005489   -0.031106
   -1   -1    0   21   15    0.003269    0.033353
   -1   -1    0   22   15    0.018399    0.019744
   -1   -1    0    1   16    0.006480    0.040813
   -1   -1    0    2   16   -0.058490   -0.665323
   -1   -1    0    3   16   -0.440314    0.401137
   -1   -1    0    4   16    0.643882    0.020677
   -1   -1    0    5   16    0.018282    0.046900
   -1   -1    0    6   16   -0.001365   -0.001088
   -1   -1    0    7   16    0.003031   -0.007103
   -1   -1    0    8   16   -0.062385   -0.052229
   -1   -1    0    9   16   -0.010587   -0.009260
   -1   -1    0   10   16   -0.002831   -0.002702
   -1   -1    0   11   16   -0.012022   -0.014847
   -1   -1    0   12   16   -0.007813   -0.009989
   -1   -1    0   13   16   -0.008262   -0.005454
   -1   -1    0   14   16    0.143407   -0.043570
   -1   -1    0   15   16    0.849924    0.007959
   -1   -1    0   16   16    0.673815    0.000000
   -1   -1    0   17   16    0.112370   -0.022996
   -1   -1    0   18   16    0.310440   -0.074848
   -1   -1    0   19   16    0.056182    0.017766
   -1   -1    0   20   16   -0.033031   -0.016111
   -1   -1    0   21   16    0.003473   -0.021118
   -1   -1    0   22   16   -0.016208   -0.006998
   -1   -1    0    1   17   -0.159594   -0.021582
   -1   -1    0    2   17    0.043513    0.205959
   -1   -1    0    3   17    0.092150   -0.564959
   -1   -1    0    4   17    0.052433    0.004059
   -1   -1    0    5   17    0.057299    0.055490
   -1   -1    0    6   17    0.026729   -0.000109
   -1   -1    0    7   17    0.033368    0.031476
   -1   -1    0    8   17   -0.043899   -0.094090
   -1   -1    0    9   17   -0.009599   -0.002642
   -1   -1    0   10   17    0.031867    0.006779
   -1   -1    0   11   17   -0.023966    0.002316
   -1   -1    0   12   17    0.012580   -0.000112
   -1   -1    0   13   17    0.003926    0.006602
   -1   -1    0   14   17    0.152387    0.006546
   -1   -1    0   15   17   -0.169241   -0.099849
   -1   -1    0   16   17    0.112370    0.022996
   -1   -1    0   17   17   -0.139567    0.000000
   -1   -1    0   18   17   -0.013889    0.034296
   -1   -1    0   19   17    0.011850   -0.057380
   -1   -1    0   20   17    0.056952    0.026579
   -1   -1    0   21   17   -0.009339    0.000506
   -1   -1    0   22   17   -0.003349   -0.009266
   -1   -1    0    1   18   -0.025914   -0.039873
   -1   -1    0    2   18    0.145005   -0.145439
   -1   -1    0    3   18   -0.061296    0.753098
   -1   -1    0    4   18   -0.340437   -0.138924
   -1   -1    0    5   18    0.225472    0.053115
   -1   -1    0    6   18   -0.006527    0.000049
   -1   -1    0    7   18   -0.112971    0.003924
   -1   -1    0    8   18    0.130491    0.169614
   -1   -1    0    9   18   -0.005248    0.003770
   -1   -1    0   10   18   -0.022975    0.009633
   -1   -1    0   11   18   -0.003447   -0.020689
   -1   -1    0   12   18   -0.020070   -0.023140
   -1   -1    0   13   18   -0.020630   -0.029716
   -1   -1    0   14   18   -0.023816   -0.075687
   -1   -1    0   15   18    0.549288    0.325357
   -1   -1    0   16   18    0.310440    0.074848
   -1   -1    0   17   18   -0.013889   -0.034296
   -1   -1    0   18   18   -0.297774    0.000000
   -1   -1    0   19   18    0.763006   -0.048257
   -1   -1    0   20   18    0.017635   -0.031791
   -1   -1    0   21   18    0.002188    0.005798
   -1   -1    0   22   18    0.005484    0.012023
   -1   -1    0    1   19   -0.026920   -0.041106
   -1   -1    0    2   19   -0.248828    0.434080
   -1   -1    0    3   19    0.465318   -0.584083
   -1   -1    0    4   19    0.052931   -0.062871
   -1   -1    0    5   19    0.142433   -0.022339
   -1   -1    0    6   19    0.006968    0.002171
   -1   -1    0    7   19   -0.000167   -0.091861
   -1   -1    0    8   19   -0.093233   -0.053217
   -1   -1    0    9   19   -0.002369    0.009543
   -1   -1    0   10   19    0.013905    0.015127
   -1   -1    0   11   19    0.003756    0.008927
   -1   -1    0   12   19    0.002380    0.021802
   -1   -1    0   13   19   -0.014651    0.008041
   -1   -1    0   14   19    0.096639    0.062205
   -1   -1    0   15   19    0.085561   -0.077452
   -1   -1    0   16   19    0.056182   -0.017766
   -1   -1    0   17   19    0.011850    0.057380
   -1   -1    0   18   19    0.763006    0.048257
   -1   -1    0   19   19    1.043893   -0.000000
   -1   -1    0   20   19    0.010837    0.034059
   -1   -1    0   21   19   -0.012773   -0.006483
   -1   -1    0   22   19   -0.002357    0.011480
   -1   -1    0    1   20   -0.049689   -0.004846
   -1   -1    0    2   20   -0.034679    0.038185
   -1   -1    0    3   20   -0.018113   -0.054373
   -1   -1    0    4   20    0.021476    0.008010
   -1   -1    0    5   20    0.002092    0.003990
   -1   -1    0    6   20    0.146679   -0.009811
   -1   -1    0    7   20    0.016731   -0.138158
   -1   -1    0    8   20   -0.606372   -0.004151
   -1   -1    0    9   20   -0.020597   -0.008977
   -1   -1    0   10   20   -0.032204    0.076295
   -1   -1    0   11   20    0.017120   -0.006008
   -1   -1    0   12   20    0.057554    0.030446
   -1   -1    0   13   20   -0.043649    0.029335
   -1   -1    0   14   20    0.008336   -0.017158
   -1   -1    0   15   20   -0.005489    0.031106
   -1   -1    0   16   20   -0.033031    0.016111
   -1   -1    0   17   20    0.056952   -0.026579
   -1   -1    0   18   20    0.017635    0.031791
   -1   -1    0   19   20    0.010837   -0.034059
   -1   -1    0   20   20   -0.168576   -0.000000
   -1   -1    0   21   20   -0.038500   -0.004830
   -1   -1    0   22   20    0.085199   -0.013502
   -1   -1    0    1   21    0.007045    0.009742
   -1   -1    0    2   21    0.014925   -0.007795
   -1   -1    0    3   21    0.009544    0.002879
   -1   -1    0    4   21   -0.008632   -0.001426
   -1   -1    0    5   21   -0.010995    0.001584
   -1   -1    0    6   21   -0.003335    0.003481
   -1   -1    0    7   21   -0.154497    0.031805
   -1   -1    0    8   21   -0.374069    0.151104
   -1   -1    0    9   21   -0.068843    0.052114
   -1   -1    0   10   21   -0.496092   -0.240679
   -1   -1    0   11   21   -0.106484    0.008894
   -1   -1    0   12   21   -0.523672   -0.066295
   -1   -1    0   13   21    0.194902   -0.051729
   -1   -1    0   14   21    0.006513    0.007547
   -1   -1    0   15   21    0.003269   -0.033353
   -1   -1    0   16   21    0.003473    0.021118
   -1   -1    0   17   21   -0.009339   -0.000506
   -1   -1    0   18   21    0.002188   -0.005798
   -1   -1    0   19   21   -0.012773    0.006483
   -1   -1    0   20   21   -0.038500    0.004830
   -1   -1    0   21   21    0.322996    0.000000
   -1   -1    0   22   21    0.532915    0.032977
   -1   -1    0    1   22   -0.005673    0.007608
   -1   -1    0    2   22    0.029993    0.013386
   -1   -1    0    3   22   -0.023743    0.009414
   -1   -1    0    4   22   -0.007768    0.002577
   -1   -1    0    5   22   -0.004449    0.007945
   -1   -1    0    6   22   -0.003506    0.021960
   -1   -1    0    7   22    0.154785   -0.046108
   -1   -1    0    8   22   -0.408982   -0.234050
   -1   -1    0    9   22   -0.502343   -0.000294
   -1   -1    0   10   22    0.138693   -0.072982
   -1   -1    0   11   22    0.072438    0.012510
   -1   -1    0   12   22    0.257340    0.022005
   -1   -1    0   13   22   -0.250353    0.003557
   -1   -1    0   14   22   -0.004760    0.004246
   -1   -1    0   15   22    0.018399   -0.019744
   -1   -1    0   16   22   -0.016208    0.006998
   -1   -1    0   17   22   -0.003349    0.009266
   -1   -1    0   18   22    0.005484   -0.012023
   -1   -1    0   19   22   -0.002357   -0.011480
   -1   -1    0   20   22    0.085199    0.013502
   -1   -1    0   21   22    0.532915   -0.032977
   -1   -1    0   22   22    0.773320   -0.000000
   -1   -1    1    1    1    0.000503   -0.000000
   -1   -1    1    2    1    0.020454    0.011177
   -1   -1    1    3    1   -0.003872   -0.001723
   -1   -1    1    4    1   -0.002090   -0.003336
   -1   -1    1    5    1    0.001714   -0.004587
   -1   -1    1    6    1   -0.012415    0.001603
   -1   -1    1    7    1   -0.003451   -0.036676
   -1   -1    1    8    1    0.035089    0.048276
   -1   -1    1    9    1   -0.002836   -0.002832
   -1   -1    1   10    1   -0.000805    0.001088
   -1   -1    1   11    1    0.044994    0.009349
   -1   -1    1   12    1    0.011238   -0.001473
   -1   -1    1   13    1   -0.000927   -0.008233
   -1   -1    1   14    1   -0.007626   -0.001538
   -1   -1    1   15    1    0.011544   -0.011072
   -1   -1    1   16    1   -0.002590   -0.003827
   -1   -1    1   17    1    0.002686   -0.000972
   -1   -1    1   18    1   -0.001028   -0.007521
   -1   -1    1   19    1   -0.004371   -0.005770
   -1   -1    1   20    1    0.008624   -0.003227
   -1   -1    1   21    1   -0.003983   -0.000328
   -1   -1    1   22    1   -0.003034    0.002429
   -1   -1    1    1    2    0.020454   -0.011177
   -1   -1    1    2    2   -0.046157   -0.000000
   -1   -1    1    3    2    0.115646   -0.081233
   -1   -1    1    4    2   -0.002523   -0.014929
   -1   -1    1    5    2   -0.016519    0.018061
   -1   -1    1    6    2    0.005930   -0.000238
   -1   -1    1    7    2   -0.097778    0.153677
   -1   -1    1    8    2    0.022693   -0.056777
   -1   -1    1    9    2    0.018935    0.025254
   -1   -1    1   10    2   -0.023034   -0.009486
   -1   -1    1   11    2   -0.073279   -0.064347
   -1   -1    1   12    2   -0.003905    0.013656
   -1   -1    1   13    2   -0.021132    0.033983
   -1   -1    1   14    2    0.035464   -0.035335
   -1   -1    1   15    2   -0.078032    0.123193
   -1   -1    1   16    2    0.011874    0.035673
   -1   -1    1   17    2    0.035348   -0.033787
   -1   -1    1   18    2   -0.008831   -0.113865
   -1   -1    1   19    2    0.028867    0.014671
   -1   -1    1   20    2   -0.060747   -0.002264
   -1   -1    1   21    2    0.028397    0.003563
   -1   -1    1   22    2   -0.005644    0.010716
   -1   -1    1    1    3   -0.003872    0.001723
   -1   -1    1    2    3    0.115646    0.081233
   -1   -1    1    3    3    0.061673    0.000000
   -1   -1    1    4    3   -0.009227    0.004932
   -1   -1    1    5    3   -0.006844   -0.004601
   -1   -1    1    6    3   -0.010697   -0.009273
   -1   -1    1    7    3    0.066880   -0.042183
   -1   -1    1    8    3   -0.023397   -0.001230
   -1   -1    1    9    3    0.012247    0.010214
   -1   -1    1   10    3    0.009814    0.009813
   -1   -1    1   11    3    0.036208    0.036624
   -1   -1    1   12    3   -0.008147    0.023270
   -1   -1    1   13    3    0.036949   -0.012099
   -1   -1    1   14    3    0.010910   -0.012065
   -1   -1    1   15    3    0.110253   -0.016913
   -1   -1    1   16    3    0.003725    0.002325
   -1   -1    1   17    3    0.003934   -0.021201
   -1   -1    1   18    3   -0.014030    0.104829
   -1   -1    1   19    3   -0.042337   -0.009993
   -1   -1    1   20    3   -0.013069    0.033814
   -1   -1    1   21    3   -0.022084    0.032847
   -1   -1    1   22    3   -0.004203   -0.004269
   -1   -1    1    1    4   -0.002090    0.003336
   -1   -1    1    2    4   -0.002523    0.014929
   -1   -1    1    3    4   -0.009227   -0.004932
   -1   -1    1    4    4    0.003947    0.000000
   -1   -1    1    5    4    0.000391    0.000632
   -1   -1    1    6    4   -0.002819    0.000546
   -1   -1    1    7    4    0.000869   -0.002095
   -1   -1    1    8    4    0.012381    0.006783
   -1   -1    1    9    4    0.019416   -0.008401
   -1   -1    1   10    4    0.002367    0.004478
   -1   -1    1   11    4   -0.020079    0.000368
   -1   -1    1   12    4   -0.003479   -0.005268
   -1   -1    1   13    4    0.003607   -0.007562
   -1   -1    1   14    4    0.007468   -0.003239
   -1   -1    1   15    4    0.001519    0.021666
   -1   -1    1   16    4    0.005411   -0.009411
   -1   -1    1   17    4   -0.002540    0.006563
   -1   -1    1   18    4   -0.011046   -0.006813
   -1   -1    1   19    4    0.009125    0.003378
   -1   -1    1   20    4   -0.002953    0.001387
   -1   -1    1   21    4   -0.002639    0.001798
   -1   -1    1   22    4    0.009032   -0.000575
   -1   -1    1    1    5    0.001714    0.004587
   -1   -1    1    2    5   -0.016519   -0.018061
   -1   -1    1    3    5   -0.006844    0.004601
   -1   -1    1    4    5    0.000391   -0.000632
   -1   -1    1    5    5   -0.006200    0.000000
   -1   -1    1    6    5    0.000866   -0.000544
   -1   -1    1    7    5   -0.009114   -0.011939
   -1   -1    1    8    5   -0.023949    0.006631
   -1   -1    1    9    5   -0.016301   -0.002815
   -1   -1    1   10    5   -0.006744    0.005243
   -1   -1    1   11    5    0.021884   -0.004951
   -1   -1    1   12    5   -0.003732    0.007615
   -1   -1    1   13    5   -0.009106   -0.007764
   -1   -1    1   14    5    0.002185    0.001249
   -1   -1    1   15    5   -0.007559   -0.020125
   -1   -1    1   16    5    0.002482    0.002396
   -1   -1    1   17    5    0.003213    0.005131
   -1   -1    1   18    5    0.002772    0.018570
   -1   -1    1   19    5    0.005940    0.001427
   -1   -1    1   20    5    0.000702    0.001041
   -1   -1    1   21    5    0.022002    0.000883
   -1   -1    1   22    5    0.022865    0.003862
   -1   -1    1    1    6   -0.012415   -0.001603
   -1   -1    1    2    6    0.005930    0.000238
   -1   -1    1    3    6   -0.010697    0.009273
   -1   -1    1    4    6   -0.002819   -0.000546
   -1   -1    1    5    6    0.000866    0.000544
   -1   -1    1    6    6   -0.001010    0.000000
   -1   -1    1    7    6    0.000872   -0.001392
   -1   -1    1    8    6   -0.001216   -0.005282
   -1   -1    1    9    6   -0.000466    0.000680
   -1   -1    1   10    6   -0.000395   -0.001113
   -1   -1    1   11    6    0.001567    0.001367
   -1   -1    1   12    6    0.000182    0.000468
   -1   -1    1   13    6    0.001705   -0.000294
   -1   -1    1   14    6   -0.022521   -0.000209
   -1   -1    1   15    6   -0.003115   -0.014394
   -1   -1    1   16    6   -0.002980    0.007438
   -1   -1    1   17    6   -0.002024   -0.003690
   -1   -1    1   18    6   -0.001256    0.006242
   -1   -1    1   19    6    0.001449   -0.004178
   -1   -1    1   20    6   -0.002404    0.000769
   -1   -1    1   21    6    0.000339   -0.000379
   -1   -1    1   22    6   -0.002415    0.000334
   -1   -1    1    1    7   -0.003451    0.036676
   -1   -1    1    2    7   -0.097778   -0.153677
   -1   -1    1    3    7    0.066880    0.042183
   -1   -1    1    4    7    0.000869    0.002095
   -1   -1    1    5    7   -0.009114    0.011939
   -1   -1    1    6    7    0.000872    0.001392
   -1   -1    1    7    7   -0.002032    0.000000
   -1   -1    1    8    7   -0.014051   -0.066326
   -1   -1    1    9    7    0.005727    0.002381
   -1   -1    1   10    7    0.005122    0.000430
   -1   -1    1   11    7   -0.009040    0.010775
   -1   -1    1   12    7   -0.000939   -0.000527
   -1   -1    1   13    7    0.000316    0.004619
   -1   -1    1   14    7    0.012893   -0.034595
   -1   -1    1   15    7   -0.002347   -0.031276
   -1   -1    1   16    7    0.053445   -0.027885
   -1   -1    1   17    7    0.012222    0.029389
   -1   -1    1   18    7   -0.014121   -0.083914
   -1   -1    1   19    7    0.009718    0.012521
   -1   -1    1   20    7   -0.006452    0.004024
   -1   -1    1   21    7   -0.001146    0.010391
   -1   -1    1   22    7   -0.003904   -0.010047
   -1   -1    1    1    8    0.035089   -0.048276
   -1   -1    1    2    8    0.022693    0.056777
   -1   -1    1    3    8   -0.023397    0.001230
   -1   -1    1    4    8    0.012381   -0.006783
   -1   -1    1    5    8   -0.023949   -0.006631
   -1   -1    1    6    8   -0.001216    0.005282
   -1   -1    1    7    8   -0.014051    0.066326
   -1   -1    1    8    8    0.029043   -0.000000
   -1   -1    1    9    8    0.002284   -0.004863
   -1   -1    1   10    8   -0.005039    0.001460
   -1   -1    1   11    8   -0.023805   -0.032700
   -1   -1    1   12    8   -0.003150    0.001043
   -1   -1    1   13    8   -0.004030   -0.001376
   -1   -1    1   14    8   -0.009493    0.046099
   -1   -1    1   15    8   -0.030189    0.104512
   -1   -1    1   16    8    0.050376   -0.084543
   -1   -1    1   17    8    0.008580   -0.002864
   -1   -1    1   18    8   -0.018857    0.071175
   -1   -1    1   19    8   -0.001637   -0.038855
   -1   -1    1   20    8   -0.022434   -0.018257
   -1   -1    1   21    8    0.016855    0.002392
   -1   -1    1   22    8    0.006275   -0.005949
   -1   -1    1    1    9   -0.002836    0.002832
   -1   -1    1    2    9    0.018935   -0.025254
   -1   -1    1    3    9    0.012247   -0.010214
   -1   -1    1    4    9    0.019416    0.008401
   -1   -1    1    5    9   -0.016301    0.002815
   -1   -1    1    6    9   -0.000466   -0.000680
   -1   -1    1    7    9    0.005727   -0.002381
   -1   -1    1    8    9    0.002284    0.004863
   -1   -1    1    9    9    0.003883   -0.000000
   -1   -1    1   10    9   -0.001823   -0.001244
   -1   -1    1   11    9   -0.001636   -0.000361
   -1   -1    1   12    9   -0.032169   -0.005139
   -1   -1    1   13    9   -0.022444   -0.016126
   -1   -1    1   14    9    0.002053   -0.003170
   -1   -1    1   15    9    0.000333    0.004826
   -1   -1    1   16    9   -0.019773   -0.002536
   -1   -1    1   17    9   -0.007177    0.007595
   -1   -1    1   18    9    0.058173   -0.023436
   -1   -1    1   19    9   -0.004824    0.013598
   -1   -1    1   20    9   -0.001582   -0.002071
   -1   -1    1   21    9   -0.029760    0.008259
   -1   -1    1   22    9   -0.018649   -0.007388
   -1   -1    1    1   10   -0.000805   -0.001088
   -1   -1    1    2   10   -0.023034    0.009486
   -1   -1    1    3   10    0.009814   -0.009813
   -1   -1    1    4   10    0.002367   -0.004478
   -1   -1    1    5   10   -0.006744   -0.005243
   -1   -1    1    6   10   -0.000395    0.001113
   -1   -1    1    7   10    0.005122   -0.000430
   -1   -1    1    8   10   -0.005039   -0.001460
   -1   -1    1    9   10   -0.001823    0.001244
   -1   -1    1   10   10    0.001078    0.000000
   -1   -1    1   11   10    0.001576    0.002807
   -1   -1    1   12   10    0.004425    0.001164
   -1   -1    1   13   10    0.002920    0.002000
   -1   -1    1   14   10   -0.030596   -0.003157
   -1   -1    1   15   10   -0.002060    0.008530
   -1   -1    1   16   10    0.011714    0.016184
   -1   -1    1   17   10   -0.001539    0.003673
   -1   -1    1   18   10   -0.002852    0.003931
   -1   -1    1   19   10    0.006378    0.003265
   -1   -1    1   20   10   -0.002104   -0.001234
   -1   -1    1   21   10   -0.005444    0.005470
   -1   -1    1   22   10   -0.005576   -0.002220
   -1   -1    1    1   11    0.044994   -0.009349
   -1   -1    1    2   11   -0.073279    0.064347
   -1   -1    1    3   11    0.036208   -0.036624
   -1   -1    1    4   11   -0.020079   -0.000368
   -1   -1    1    5   11    0.021884    0.004951
   -1   -1    1    6   11    0.001567   -0.001367
   -1   -1    1    7   11   -0.009040   -0.010775
   -1   -1    1    8   11   -0.023805    0.032700
   -1   -1    1    9   11   -0.001636    0.000361
   -1   -1    1   10   11    0.001576   -0.002807
   -1   -1    1   11   11    0.010032    0.000000
   -1   -1    1   12   11   -0.001458    0.001285
   -1   -1    1   13   11   -0.000394    0.000676
   -1   -1    1   14   11    0.032112   -0.014372
   -1   -1    1   15   11   -0.041378   -0.021814
   -1   -1    1   16   11   -0.004976    0.027548
   -1   -1    1   17   11    0.027053   -0.014269
   -1   -1    1   18   11    0.007623    0.032613
   -1   -1    1   19   11    0.006028   -0.039548
   -1   -1    1   20   11    0.004920    0.000118
   -1   -1    1   21   11    0.003415    0.000782
   -1   -1    1   22   11   -0.003688    0.003880
   -1   -1    1    1   12    0.011238    0.001473
   -1   -1    1    2   12   -0.003905   -0.013656
   -1   -1    1    3   12   -0.008147   -0.023270
   -1   -1    1    4   12   -0.003479    0.005268
   -1   -1    1    5   12   -0.003732   -0.007615
   -1   -1    1    6   12    0.000182   -0.000468
   -1   -1    1    7   12   -0.000939    0.000527
   -1   -1    1    8   12   -0.003150   -0.001043
   -1   -1    1    9   12   -0.032169    0.005139
   -1   -1    1   10   12    0.004425   -0.001164
   -1   -1    1   11   12   -0.001458   -0.001285
   -1   -1    1   12   12    0.000917   -0.000000
   -1   -1    1   13   12   -0.004969    0.000994
   -1   -1    1   14   12    0.017244    0.001610
   -1   -1    1   15   12   -0.018589    0.010773
   -1   -1    1   16   12    0.007612   -0.013999
   -1   -1    1   17   12   -0.003188   -0.001950
   -1   -1    1   18   12    0.013903   -0.004503
   -1   -1    1   19   12    0.006251    0.011616
   -1   -1    1   20   12    0.000343    0.002613
   -1   -1    1   21   12    0.001218   -0.002267
   -1   -1    1   22   12   -0.002455    0.002437
   -1   -1    1    1   13   -0.000927    0.008233
   -1   -1    1    2   13   -0.021132   -0.033983
   -1   -1    1    3   13    0.036949    0.012099
   -1   -1    1    4   13    0.003607    0.007562
   -1   -1    1    5   13   -0.009106    0.007764
   -1   -1    1    6   13    0.001705    0.000294
   -1   -1    1    7   13    0.000316   -0.004619
   -1   -1    1    8   13   -0.004030    0.001376
   -1   -1    1    9   13   -0.022444    0.016126
   -1   -1    1   10   13    0.002920   -0.002000
   -1   -1    1   11   13   -0.000394   -0.000676
   -1   -1    1   12   13   -0.004969   -0.000994
   -1   -1    1   13   13   -0.005362    0.000000
   -1   -1    1   14   13    0.000290   -0.009140
   -1   -1    1   15   13   -0.006307   -0.018171
   -1   -1    1   16   13    0.005062   -0.003425
   -1   -1    1   17   13   -0.007052    0.000705
   -1   -1    1   18   13    0.002338   -0.003460
   -1   -1    1   19   13   -0.004327    0.007783
   -1   -1    1   20   13    0.003553    0.000838
   -1   -1    1   21   13   -0.003800   -0.001312
   -1   -1    1   22   13   -0.002763    0.001311
   -1   -1    1    1   14   -0.007626    0.001538
   -1   -1    1    2   14    0.035464    0.035335
   -1   -1    1    3   14    0.010910    0.012065
   -1   -1    1    4   14    0.007468    0.003239
   -1   -1    1    5   14    0.002185   -0.001249
   -1   -1    1    6   14   -0.022521    0.000209
   -1   -1    1    7   14    0.012893    0.034595
   -1   -1    1    8   14   -0.009493   -0.046099
   -1   -1    1    9   14    0.002053    0.003170
   -1   -1    1   10   14   -0.030596    0.003157
   -1   -1    1   11   14    0.032112    0.014372
   -1   -1    1   12   14    0.017244   -0.001610
   -1   -1    1   13   14    0.000290    0.009140
   -1   -1    1   14   14    0.010637    0.000000
   -1   -1    1   15   14    0.053709    0.010327
   -1   -1    1   16   14   -0.015158    0.003865
   -1   -1    1   17   14   -0.003270    0.005348
   -1   -1    1   18   14    0.001165    0.011480
   -1   -1    1   19   14   -0.002105   -0.007061
   -1   -1    1   20   14   -0.045577    0.008219
   -1   -1    1   21   14   -0.019228    0.003637
   -1   -1    1   22   14   -0.005114   -0.005007
   -1   -1    1    1   15    0.011544    0.011072
   -1   -1    1    2   15   -0.078032   -0.123193
   -1   -1    1    3   15    0.110253    0.016913
   -1   -1    1    4   15    0.001519   -0.021666
   -1   -1    1    5   15   -0.007559    0.020125
   -1   -1    1    6   15   -0.003115    0.014394
   -1   -1    1    7   15   -0.002347    0.031276
   -1   -1    1    8   15   -0.030189   -0.104512
   -1   -1    1    9   15    0.000333   -0.004826
   -1   -1    1   10   15   -0.002060   -0.008530
   -1   -1    1   11   15   -0.041378    0.021814
   -1   -1    1   12   15   -0.018589   -0.010773
   -1   -1    1   13   15   -0.006307    0.018171
   -1   -1    1   14   15    0.053709   -0.010327
   -1   -1    1   15   15   -0.117358    0.000000
   -1   -1    1   16   15    0.028277   -0.000450
   -1   -1    1   17   15    0.040368   -0.008136
   -1   -1    1   18   15   -0.042997   -0.040969
   -1   -1    1   19   15    0.029467    0.075583
   -1   -1    1   20   15   -0.004896   -0.023026
   -1   -1    1   21   15   -0.028978   -0.000078
   -1   -1    1   22   15    0.017086   -0.051490
   -1   -1    1    1   16   -0.002590    0.003827
   -1   -1    1    2   16    0.011874   -0.035673
   -1   -1    1    3   16    0.003725   -0.002325
   -1   -1    1    4   16    0.005411    0.009411
   -1   -1    1    5   16    0.002482   -0.002396
   -1   -1    1    6   16   -0.002980   -0.007438
   -1   -1    1    7   16    0.053445    0.027885
   -1   -1    1    8   16    0.050376    0.084543
   -1   -1    1    9   16   -0.019773    0.002536
   -1   -1    1   10   16    0.011714   -0.016184
   -1   -1    1   11   16   -0.004976   -0.027548
   -1   -1    1   12   16    0.007612    0.013999
   -1   -1    1   13   16    0.005062    0.003425
   -1   -1    1   14   16   -0.015158   -0.003865
   -1   -1    1   15   16    0.028277    0.000450
   -1   -1    1   16   16   -0.017608   -0.000000
   -1   -1    1   17   16   -0.003248    0.020564
   -1   -1    1   18   16    0.000400   -0.015048
   -1   -1    1   19   16    0.020687   -0.002348
   -1   -1    1   20   16    0.005435   -0.005827
   -1   -1    1   21   16    0.003967    0.014477
   -1   -1    1   22   16   -0.019088    0.013210
   -1   -1    1    1   17    0.002686    0.000972
   -1   -1    1    2   17    0.035348    0.033787
   -1   -1    1    3   17    0.003934    0.021201
   -1   -1    1    4   17   -0.002540   -0.006563
   -1   -1    1    5   17    0.003213   -0.005131
   -1   -1    1    6   17   -0.002024    0.003690
   -1   -1    1    7   17    0.012222   -0.029389
   -1   -1    1    8   17    0.008580    0.002864
   -1   -1    1    9   17   -0.007177   -0.007595
   -1   -1    1   10   17   -0.001539   -0.003673
   -1   -1    1   11   17    0.027053    0.014269
   -1   -1    1   12   17   -0.003188    0.001950
   -1   -1    1   13   17   -0.007052   -0.000705
   -1   -1    1   14   17   -0.003270   -0.005348
   -1   -1    1   15   17    0.040368    0.008136
   -1   -1    1   16   17   -0.003248   -0.020564
   -1   -1    1   17   17    0.013716    0.000000
   -1   -1    1   18   17   -0.019955    0.019446
   -1   -1    1   19   17    0.001657   -0.011780
   -1   -1    1   20   17    0.009264    0.004835
   -1   -1    1   21   17    0.003295   -0.002993
   -1   -1    1   22   17   -0.009144   -0.006542
   -1   -1    1    1   18   -0.001028    0.007521
   -1   -1    1    2   18   -0.008831    0.113865
   -1   -1    1    3   18   -0.014030   -0.104829
   -1   -1    1    4   18   -0.011046    0.006813
   -1   -1    1    5   18    0.002772   -0.018570
   -1   -1    1    6   18   -0.001256   -0.006242
   -1   -1    1    7   18   -0.014121    0.083914
   -1   -1    1    8   18   -0.018857   -0.071175
   -1   -1    1    9   18    0.058173    0.023436
   -1   -1    1   10   18   -0.002852   -0.003931
   -1   -1    1   11   18    0.007623   -0.032613
   -1   -1    1   12   18    0.013903    0.004503
   -1   -1    1   13   18    0.002338    0.003460
   -1   -1    1   14   18    0.001165   -0.011480
   -1   -1    1   15   18   -0.042997    0.040969
   -1   -1    1   16   18    0.000400    0.015048
   -1   -1    1   17   18   -0.019955   -0.019446
   -1   -1    1   18   18    0.050822   -0.000000
   -1   -1    1   19   18   -0.001427   -0.056238
   -1   -1    1   20   18   -0.032829   -0.005553
   -1   -1    1   21   18    0.012236    0.002413
   -1   -1    1   22   18   -0.017824    0.007475
   -1   -1    1    1   19   -0.004371    0.005770
   -1   -1    1    2   19    0.028867   -0.014671
   -1   -1    1    3   19   -0.042337    0.009993
   -1   -1    1    4   19    0.009125   -0.003378
   -1   -1    1    5   19    0.005940   -0.001427
   -1   -1    1    6   19    0.001449    0.004178
   -1   -1    1    7   19    0.009718   -0.012521
   -1   -1    1    8   19   -0.001637    0.038855
   -1   -1    1    9   19   -0.004824   -0.013598
   -1   -1    1   10   19    0.006378   -0.003265
   -1   -1    1   11   19    0.006028    0.039548
   -1   -1    1   12   19    0.006251   -0.011616
   -1   -1    1   13   19   -0.004327   -0.007783
   -1   -1    1   14   19   -0.002105    0.007061
   -1   -1    1   15   19    0.029467   -0.075583
   -1   -1    1   16   19    0.020687    0.002348
   -1   -1    1   17   19    0.001657    0.011780
   -1   -1    1   18   19   -0.001427    0.056238
   -1   -1    1   19   19   -0.014431   -0.000000
   -1   -1    1   20   19    0.015334    0.008208
   -1   -1    1   21   19   -0.009144   -0.007019
   -1   -1    1   22   19   -0.013387   -0.002506
   -1   -1    1    1   20    0.008624    0.003227
   -1   -1    1    2   20   -0.060747    0.002264
   -1   -1    1    3   20   -0.013069   -0.033814
   -1   -1    1    4   20   -0.002953   -0.001387
   -1   -1    1    5   20    0.000702   -0.001041
   -1   -1    1    6   20   -0.002404   -0.000769
   -1   -1    1    7   20   -0.006452   -0.004024
   -1   -1    1    8   20   -0.022434    0.018257
   -1   -1    1    9   20   -0.001582    0.002071
   -1   -1    1   10   20   -0.002104    0.001234
   -1   -1    1   11   20    0.004920   -0.000118
   -1   -1    1   12   20    0.000343   -0.002613
   -1   -1    1   13   20    0.003553   -0.000838
   -1   -1    1   14   20   -0.045577   -0.008219
   -1   -1    1   15   20   -0.004896    0.023026
   -1   -1    1   16   20    0.005435    0.005827
   -1   -1    1   17   20    0.009264   -0.004835
   -1   -1    1   18   20   -0.032829    0.005553
   -1   -1    1   19   20    0.015334   -0.008208
   -1   -1    1   20   20   -0.002236    0.000000
   -1   -1    1   21   20   -0.002660    0.001963
   -1   -1    1   22   20   -0.003855    0.002810
   -1   -1    1    1   21   -0.003983    0.000328
   -1   -1    1    2   21    0.028397   -0.003563
   -1   -1    1    3   21   -0.022084   -0.032847
   -1   -1    1    4   21   -0.002639   -0.001798
   -1   -1    1    5   21    0.022002   -0.000883
   -1   -1    1    6   21    0.000339    0.000379
   -1   -1    1    7   21   -0.001146   -0.010391
   -1   -1    1    8   21    0.016855   -0.002392
   -1   -1    1    9   21   -0.029760   -0.008259
   -1   -1    1   10   21   -0.005444   -0.005470
   -1   -1    1   11   21    0.003415   -0.000782
   -1   -1    1   12   21    0.001218    0.002267
   -1   -1    1   13   21   -0.003800    0.001312
   -1   -1    1   14   21   -0.019228   -0.003637
   -1   -1    1   15   21   -0.028978    0.000078
   -1   -1    1   16   21    0.003967   -0.014477
   -1   -1    1   17   21    0.003295    0.002993
   -1   -1    1   18   21    0.012236   -0.002413
   -1   -1    1   19   21   -0.009144    0.007019
   -1   -1    1   20   21   -0.002660   -0.001963
   -1   -1    1   21   21    0.002392   -0.000000
   -1   -1    1   22   21   -0.003930   -0.001187
   -1   -1    1    1   22   -0.003034   -0.002429
   -1   -1    1    2   22   -0.005644   -0.010716
   -1   -1    1    3   22   -0.004203    0.004269
   -1   -1    1    4   22    0.009032    0.000575
   -1   -1    1    5   22    0.022865   -0.003862
   -1   -1    1    6   22   -0.002415   -0.000334
   -1   -1    1    7   22   -0.003904    0.010047
   -1   -1    1    8   22    0.006275    0.005949
   -1   -1    1    9   22   -0.018649    0.007388
   -1   -1    1   10   22   -0.005576    0.002220
   -1   -1    1   11   22   -0.003688   -0.003880
   -1   -1    1   12   22   -0.002455   -0.002437
   -1   -1    1   13   22   -0.002763   -0.001311
   -1   -1    1   14   22   -0.005114    0.005007
   -1   -1    1   15   22    0.017086    0.051490
   -1   -1    1   16   22   -0.019088   -0.013210
   -1   -1    1   17   22   -0.009144    0.006542
   -1   -1    1   18   22   -0.017824   -0.007475
   -1   -1    1   19   22   -0.013387    0.002506
   -1   -1    1   20   22   -0.003855   -0.002810
   -1   -1    1   21   22   -0.003930    0.001187
   -1   -1    1   22   22   -0.003982    0.000000
   -1    0   -1    1    1    0.001149   -0.000000
   -1    0   -1    2    1    0.008467    0.008079
   -1    0   -1    3    1    0.009717    0.000266
   -1    0   -1    4    1    0.000095    0.001240
   -1    0   -1    5    1    0.000996   -0.003120
   -1    0   -1    6    1   -0.005397   -0.000037
   -1    0   -1    7    1   -0.014548   -0.025575
   -1    0   -1    8    1   -0.050818   -0.001798
   -1    0   -1    9    1   -0.000797    0.002043
   -1    0   -1   10    1   -0.001930    0.002027
   -1    0   -1   11    1    0.033773    0.019152
   -1    0   -1   12    1   -0.002813    0.001118
   -1    0   -1   13    1    0.007054    0.008135
   -1    0   -1   14    1   -0.001779    0.002248
   -1    0   -1   15    1    0.009207   -0.020306
   -1    0   -1   16    1   -0.002669    0.002950
   -1    0   -1   17    1    0.001274   -0.006895
   -1    0   -1   18    1   -0.002014    0.000889
   -1    0   -1   19    1   -0.010296   -0.012659
   -1    0   -1   20    1    0.013297    0.004857
   -1    0   -1   21    1    0.001691    0.000318
   -1    0   -1   22    1   -0.005878   -0.000483
   -1    0   -1    1    2    0.008467   -0.008079
   -1    0   -1    2    2   -0.084977   -0.000000
   -1    0   -1    3    2   -0.147041   -0.033729
   -1    0   -1    4    2   -0.029393   -0.001858
   -1    0   -1    5    2   -0.000532   -0.000529
   -1    0   -1    6    2   -0.001002    0.000542
   -1    0   -1    7    2    0.036951   -0.019300
   -1    0   -1    8    2    0.078650   -0.073359
   -1    0   -1    9    2   -0.029206   -0.023460
   -1    0   -1   10    2   -0.010095    0.034417
   -1    0   -1   11    2    0.098030   -0.006211
   -1    0   -1   12    2   -0.006254   -0.029052
   -1    0   -1   13    2    0.012751    0.006736
   -1    0   -1   14    2   -0.000996    0.011781
   -1    0   -1   15    2   -0.040405    0.202738
   -1    0   -1   16    2   -0.004303   -0.043284
   -1    0   -1   17    2    0.017031    0.010370
   -1    0   -1   18    2   -0.077949   -0.085414
   -1    0   -1   19    2    0.044198    0.014841
   -1    0   -1   20    2    0.000073   -0.013890
   -1    0   -1   21    2   -0.001988    0.003700
   -1    0   -1   22    2    0.041945   -0.029295
   -1    0   -1    1    3    0.009717   -0.000266
   -1    0   -1    2    3   -0.147041    0.033729
   -1    0   -1    3    3   -0.011890    0.000000
   -1    0   -1    4    3   -0.005449   -0.016701
   -1    0   -1    5    3   -0.004858    0.006816
   -1    0   -1    6    3   -0.011294    0.011190
   -1    0   -1    7    3    0.063356   -0.042855
   -1    0   -1    8    3   -0.091710   -0.040017
   -1    0   -1    9    3    0.007182   -0.002825
   -1    0   -1   10    3   -0.008433    0.007499
   -1    0   -1   11    3   -0.053487    0.024878
   -1    0   -1   12    3   -0.018442    0.025640
   -1    0   -1   13    3    0.015525    0.037266
   -1    0   -1   14    3   -0.004924    0.008458
   -1    0   -1   15    3    0.159153    0.015620
   -1    0   -1   16    3   -0.037535   -0.009566
   -1    0   -1   17    3    0.019150    0.008252
   -1    0   -1   18    3   -0.090983    0.028789
   -1    0   -1   19    3    0.042069   -0.017292
   -1    0   -1   20    3    0.003878    0.006697
   -1    0   -1   21    3    0.018208   -0.035306
   -1    0   -1   22    3   -0.019296   -0.028493
   -1    0   -1    1    4    0.000095   -0.001240
   -1    0   -1    2    4   -0.029393    0.001858
   -1    0   -1    3    4   -0.005449    0.016701
   -1    0   -1    4    4    0.005867    0.000000
   -1    0   -1    5    4   -0.000772    0.002174
   -1    0   -1    6    4    0.002300   -0.001044
   -1    0   -1    7    4    0.016248    0.014085
   -1    0   -1    8    4   -0.011167   -0.023705
   -1    0   -1    9    4    0.030363   -0.006164
   -1    0   -1   10    4   -0.005415    0.003191
   -1    0   -1   11    4    0.024895   -0.008264
   -1    0   -1   12    4    0.003891    0.001435
   -1    0   -1   13    4    0.014312    0.004698
   -1    0   -1   14    4    0.003646   -0.005503
   -1    0   -1   15    4   -0.001966    0.019903
   -1    0   -1   16    4    0.015346   -0.005519
   -1    0   -1   17    4    0.001989   -0.001755
   -1    0   -1   18    4   -0.009856    0.007243
   -1    0   -1   19    4   -0.002223   -0.009125
   -1    0   -1   20    4    0.003165   -0.001743
   -1    0   -1   21    4   -0.003471    0.001927
   -1    0   -1   22    4    0.001299   -0.003319
   -1    0   -1    1    5    0.000996    0.003120
   -1    0   -1    2    5   -0.000532    0.000529
   -1    0   -1    3    5   -0.004858   -0.006816
   -1    0   -1    4    5   -0.000772   -0.002174
   -1    0   -1    5    5   -0.004932   -0.000000
   -1    0   -1    6    5   -0.002073   -0.000986
   -1    0   -1    7    5   -0.004606   -0.013645
   -1    0   -1    8    5    0.010637    0.010500
   -1    0   -1    9    5   -0.012837   -0.005996
   -1    0   -1   10    5   -0.003345    0.005506
   -1    0   -1   11    5    0.033609    0.007218
   -1    0   -1   12    5   -0.012533    0.002468
   -1    0   -1   13    5    0.010796   -0.011350
   -1    0   -1   14    5    0.001643    0.003049
   -1    0   -1   15    5   -0.017462   -0.022039
   -1    0   -1   16    5    0.011053   -0.001003
   -1    0   -1   17    5    0.002461    0.004659
   -1    0   -1   18    5    0.004450    0.029419
   -1    0   -1   19    5    0.003529    0.005682
   -1    0   -1   20    5    0.003682    0.005244
   -1    0   -1   21    5    0.020413    0.001595
   -1    0   -1   22    5    0.025557    0.004963
   -1    0   -1    1    6   -0.005397    0.000037
   -1    0   -1    2    6   -0.001002   -0.000542
   -1    0   -1    3    6   -0.011294   -0.011190
   -1    0   -1    4    6    0.002300    0.001044
   -1    0   -1    5    6   -0.002073    0.000986
   -1    0   -1    6    6   -0.001207   -0.000000
   -1    0   -1    7    6    0.001802    0.000759
   -1    0   -1    8    6   -0.001134    0.004763
   -1    0   -1    9    6   -0.001115   -0.000011
   -1    0   -1   10    6    0.000892   -0.002192
   -1    0   -1   11    6    0.002420    0.003120
   -1    0   -1   12    6   -0.000185    0.000240
   -1    0   -1   13    6   -0.000925   -0.000067
   -1    0   -1   14    6   -0.036763   -0.002413
   -1    0   -1   15    6   -0.009686   -0.001845
   -1    0   -1   16    6    0.002011   -0.007488
   -1    0   -1   17    6   -0.005802    0.001969
   -1    0   -1   18    6    0.001225    0.001820
   -1    0   -1   19    6   -0.000508    0.003674
   -1    0   -1   20    6    0.000268    0.000024
   -1    0   -1   21    6    0.000608   -0.000069
   -1    0   -1   22    6    0.000478   -0.000046
   -1    0   -1    1    7   -0.014548    0.025575
   -1    0   -1    2    7    0.036951    0.019300
   -1    0   -1    3    7    0.063356    0.042855
   -1    0   -1    4    7    0.016248   -0.014085
   -1    0   -1    5    7   -0.004606    0.013645
   -1    0   -1    6    7    0.001802   -0.000759
   -1    0   -1    7    7    0.014664   -0.000000
   -1    0   -1    8    7   -0.000295    0.014681
   -1    0   -1    9    7    0.006479    0.005675
   -1    0   -1   10    7    0.002299    0.004289
   -1    0   -1   11    7   -0.024528    0.007741
   -1    0   -1   12    7    0.006150    0.003267
[...]
    1    1    1   20    4   -0.002953    0.001387
    1    1    1   21    4   -0.002639    0.001798
    1    1    1   22    4    0.009032   -0.000575
    1    1    1    1    5    0.001714    0.004587
    1    1    1    2    5   -0.016519   -0.018061
    1    1    1    3    5   -0.006844    0.004601
    1    1    1    4    5    0.000391   -0.000632
    1    1    1    5    5   -0.006200    0.000000
    1    1    1    6    5    0.000866   -0.000544
    1    1    1    7    5   -0.009114   -0.011939
    1    1    1    8    5   -0.023949    0.006631
    1    1    1    9    5   -0.016301   -0.002815
    1    1    1   10    5   -0.006744    0.005243
    1    1    1   11    5    0.021884   -0.004951
    1    1    1   12    5   -0.003732    0.007615
    1    1    1   13    5   -0.009106   -0.007764
    1    1    1   14    5    0.002185    0.001249
    1    1    1   15    5   -0.007559   -0.020125
    1    1    1   16    5    0.002482    0.002396
    1    1    1   17    5    0.003213    0.005131
    1    1    1   18    5    0.002772    0.018570
    1    1    1   19    5    0.005940    0.001427
    1    1    1   20    5    0.000702    0.001041
    1    1    1   21    5    0.022002    0.000883
    1    1    1   22    5    0.022865    0.003862
    1    1    1    1    6   -0.012415   -0.001603
    1    1    1    2    6    0.005930    0.000238
    1    1    1    3    6   -0.010697    0.009273
    1    1    1    4    6   -0.002819   -0.000546
    1    1    1    5    6    0.000866    0.000544
    1    1    1    6    6   -0.001010    0.000000
    1    1    1    7    6    0.000872   -0.001392
    1    1    1    8    6   -0.001216   -0.005282
    1    1    1    9    6   -0.000466    0.000680
    1    1    1   10    6   -0.000395   -0.001113
    1    1    1   11    6    0.001567    0.001367
    1    1    1   12    6    0.000182    0.000468
    1    1    1   13    6    0.001705   -0.000294
    1    1    1   14    6   -0.022521   -0.000209
    1    1    1   15    6   -0.003115   -0.014394
    1    1    1   16    6   -0.002980    0.007438
    1    1    1   17    6   -0.002024   -0.003690
    1    1    1   18    6   -0.001256    0.006242
    1    1    1   19    6    0.001449   -0.004178
    1    1    1   20    6   -0.002404    0.000769
    1    1    1   21    6    0.000339   -0.000379
    1    1    1   22    6   -0.002415    0.000334
    1    1    1    1    7   -0.003451    0.036676
    1    1    1    2    7   -0.097778   -0.153677
    1    1    1    3    7    0.066880    0.042183
    1    1    1    4    7    0.000869    0.002095
    1    1    1    5    7   -0.009114    0.011939
    1    1    1    6    7    0.000872    0.001392
    1    1    1    7    7   -0.002032    0.000000
    1    1    1    8    7   -0.014051   -0.066326
    1    1    1    9    7    0.005727    0.002381
    1    1    1   10    7    0.005122    0.000430
    1    1    1   11    7   -0.009040    0.010775
    1    1    1   12    7   -0.000939   -0.000527
    1    1    1   13    7    0.000316    0.004619
    1    1    1   14    7    0.012893   -0.034595
    1    1    1   15    7   -0.002347   -0.031276
    1    1    1   16    7    0.053445   -0.027885
    1    1    1   17    7    0.012222    0.029389
    1    1    1   18    7   -0.014121   -0.083914
    1    1    1   19    7    0.009718    0.012521
    1    1    1   20    7   -0.006452    0.004024
    1    1    1   21    7   -0.001146    0.010391
    1    1    1   22    7   -0.003904   -0.010047
    1    1    1    1    8    0.035089   -0.048276
    1    1    1    2    8    0.022693    0.056777
    1    1    1    3    8   -0.023397    0.001230
    1    1    1    4    8    0.012381   -0.006783
    1    1    1    5    8   -0.023949   -0.006631
    1    1    1    6    8   -0.001216    0.005282
    1    1    1    7    8   -0.014051    0.066326
    1    1    1    8    8    0.029043   -0.000000
    1    1    1    9    8    0.002284   -0.004863
    1    1    1   10    8   -0.005039    0.001460
    1    1    1   11    8   -0.023805   -0.032700
    1    1    1   12    8   -0.003150    0.001043
    1    1    1   13    8   -0.004030   -0.001376
    1    1    1   14    8   -0.009493    0.046099
    1    1    1   15    8   -0.030189    0.104512
    1    1    1   16    8    0.050376   -0.084543
    1    1    1   17    8    0.008580   -0.002864
    1    1    1   18    8   -0.018857    0.071175
    1    1    1   19    8   -0.001637   -0.038855
    1    1    1   20    8   -0.022434   -0.018257
    1    1    1   21    8    0.016855    0.002392
    1    1    1   22    8    0.006275   -0.005949
    1    1    1    1    9   -0.002836    0.002832
    1    1    1    2    9    0.018935   -0.025254
    1    1    1    3    9    0.012247   -0.010214
    1    1    1    4    9    0.019416    0.008401
    1    1    1    5    9   -0.016301    0.002815
    1    1    1    6    9   -0.000466   -0.000680
    1    1    1    7    9    0.005727   -0.002381
    1    1    1    8    9    0.002284    0.004863
    1    1    1    9    9    0.003883   -0.000000
    1    1    1   10    9   -0.001823   -0.001244
    1    1    1   11    9   -0.001636   -0.000361
    1    1    1   12    9   -0.032169   -0.005139
    1    1    1   13    9   -0.022444   -0.016126
    1    1    1   14    9    0.002053   -0.003170
    1    1    1   15    9    0.000333    0.004826
    1    1    1   16    9   -0.019773   -0.002536
    1    1    1   17    9   -0.007177    0.007595
    1    1    1   18    9    0.058173   -0.023436
    1    1    1   19    9   -0.004824    0.013598
    1    1    1   20    9   -0.001582   -0.002071
    1    1    1   21    9   -0.029760    0.008259
    1    1    1   22    9   -0.018649   -0.007388
    1    1    1    1   10   -0.000805   -0.001088
    1    1    1    2   10   -0.023034    0.009486
    1    1    1    3   10    0.009814   -0.009813
    1    1    1    4   10    0.002367   -0.004478
    1    1    1    5   10   -0.006744   -0.005243
    1    1    1    6   10   -0.000395    0.001113
    1    1    1    7   10    0.005122   -0.000430
    1    1    1    8   10   -0.005039   -0.001460
    1    1    1    9   10   -0.001823    0.001244
    1    1    1   10   10    0.001078    0.000000
    1    1    1   11   10    0.001576    0.002807
    1    1    1   12   10    0.004425    0.001164
    1    1    1   13   10    0.002920    0.002000
    1    1    1   14   10   -0.030596   -0.003157
    1    1    1   15   10   -0.002060    0.008530
    1    1    1   16   10    0.011714    0.016184
    1    1    1   17   10   -0.001539    0.003673
    1    1    1   18   10   -0.002852    0.003931
    1    1    1   19   10    0.006378    0.003265
    1    1    1   20   10   -0.002104   -0.001234
    1    1    1   21   10   -0.005444    0.005470
    1    1    1   22   10   -0.005576   -0.002220
    1    1    1    1   11    0.044994   -0.009349
    1    1    1    2   11   -0.073279    0.064347
    1    1    1    3   11    0.036208   -0.036624
    1    1    1    4   11   -0.020079   -0.000368
    1    1    1    5   11    0.021884    0.004951
    1    1    1    6   11    0.001567   -0.001367
    1    1    1    7   11   -0.009040   -0.010775
    1    1    1    8   11   -0.023805    0.032700
    1    1    1    9   11   -0.001636    0.000361
    1    1    1   10   11    0.001576   -0.002807
    1    1    1   11   11    0.010032    0.000000
    1    1    1   12   11   -0.001458    0.001285
    1    1    1   13   11   -0.000394    0.000676
    1    1    1   14   11    0.032112   -0.014372
    1    1    1   15   11   -0.041378   -0.021814
    1    1    1   16   11   -0.004976    0.027548
    1    1    1   17   11    0.027053   -0.014269
    1    1    1   18   11    0.007623    0.032613
    1    1    1   19   11    0.006028   -0.039548
    1    1    1   20   11    0.004920    0.000118
    1    1    1   21   11    0.003415    0.000782
    1    1    1   22   11   -0.003688    0.003880
    1    1    1    1   12    0.011238    0.001473
    1    1    1    2   12   -0.003905   -0.013656
    1    1    1    3   12   -0.008147   -0.023270
    1    1    1    4   12   -0.003479    0.005268
    1    1    1    5   12   -0.003732   -0.007615
    1    1    1    6   12    0.000182   -0.000468
    1    1    1    7   12   -0.000939    0.000527
    1    1    1    8   12   -0.003150   -0.001043
    1    1    1    9   12   -0.032169    0.005139
    1    1    1   10   12    0.004425   -0.001164
    1    1    1   11   12   -0.001458   -0.001285
    1    1    1   12   12    0.000917   -0.000000
    1    1    1   13   12   -0.004969    0.000994
    1    1    1   14   12    0.017244    0.001610
    1    1    1   15   12   -0.018589    0.010773
    1    1    1   16   12    0.007612   -0.013999
    1    1    1   17   12   -0.003188   -0.001950
    1    1    1   18   12    0.013903   -0.004503
    1    1    1   19   12    0.006251    0.011616
    1    1    1   20   12    0.000343    0.002613
    1    1    1   21   12    0.001218   -0.002267
    1    1    1   22   12   -0.002455    0.002437
    1    1    1    1   13   -0.000927    0.008233
    1    1    1    2   13   -0.021132   -0.033983
    1    1    1    3   13    0.036949    0.012099
    1    1    1    4   13    0.003607    0.007562
    1    1    1    5   13   -0.009106    0.007764
    1    1    1    6   13    0.001705    0.000294
    1    1    1    7   13    0.000316   -0.004619
    1    1    1    8   13   -0.004030    0.001376
    1    1    1    9   13   -0.022444    0.016126
    1    1    1   10   13    0.002920   -0.002000
    1    1    1   11   13   -0.000394   -0.000676
    1    1    1   12   13   -0.004969   -0.000994
    1    1    1   13   13   -0.005362    0.000000
    1    1    1   14   13    0.000290   -0.009140
    1    1    1   15   13   -0.006307   -0.018171
    1    1    1   16   13    0.005062   -0.003425
    1    1    1   17   13   -0.007052    0.000705
    1    1    1   18   13    0.002338   -0.003460
    1    1    1   19   13   -0.004327    0.007783
    1    1    1   20   13    0.003553    0.000838
    1    1    1   21   13   -0.003800   -0.001312
    1    1    1   22   13   -0.002763    0.001311
    1    1    1    1   14   -0.007626    0.001538
    1    1    1    2   14    0.035464    0.035335
    1    1    1    3   14    0.010910    0.012065
    1    1    1    4   14    0.007468    0.003239
    1    1    1    5   14    0.002185   -0.001249
    1    1    1    6   14   -0.022521    0.000209
    1    1    1    7   14    0.012893    0.034595
    1    1    1    8   14   -0.009493   -0.046099
    1    1    1    9   14    0.002053    0.003170
    1    1    1   10   14   -0.030596    0.003157
    1    1    1   11   14    0.032112    0.014372
    1    1    1   12   14    0.017244   -0.001610
    1    1    1   13   14    0.000290    0.009140
    1    1    1   14   14    0.010637    0.000000
    1    1    1   15   14    0.053709    0.010327
    1    1    1   16   14   -0.015158    0.003865
    1    1    1   17   14   -0.003270    0.005348
    1    1    1   18   14    0.001165    0.011480
    1    1    1   19   14   -0.002105   -0.007061
    1    1    1   20   14   -0.045577    0.008219
    1    1    1   21   14   -0.019228    0.003637
    1    1    1   22   14   -0.005114   -0.005007
    1    1    1    1   15    0.011544    0.011072
    1    1    1    2   15   -0.078032   -0.123193
    1    1    1    3   15    0.110253    0.016913
    1    1    1    4   15    0.001519   -0.021666
    1    1    1    5   15   -0.007559    0.020125
    1    1    1    6   15   -0.003115    0.014394
    1    1    1    7   15   -0.002347    0.031276
    1    1    1    8   15   -0.030189   -0.104512
    1    1    1    9   15    0.000333   -0.004826
    1    1    1   10   15   -0.002060   -0.008530
    1    1    1   11   15   -0.041378    0.021814
    1    1    1   12   15   -0.018589   -0.010773
    1    1    1   13   15   -0.006307    0.018171
    1    1    1   14   15    0.053709   -0.010327
    1    1    1   15   15   -0.117358    0.000000
    1    1    1   16   15    0.028277   -0.000450
    1    1    1   17   15    0.040368   -0.008136
    1    1    1   18   15   -0.042997   -0.040969
    1    1    1   19   15    0.029467    0.075583
    1    1    1   20   15   -0.004896   -0.023026
    1    1    1   21   15   -0.028978   -0.000078
    1    1    1   22   15    0.017086   -0.051490
    1    1    1    1   16   -0.002590    0.003827
    1    1    1    2   16    0.011874   -0.035673
    1    1    1    3   16    0.003725   -0.002325
    1    1    1    4   16    0.005411    0.009411
    1    1    1    5   16    0.002482   -0.002396
    1    1    1    6   16   -0.002980   -0.007438
    1    1    1    7   16    0.053445    0.027885
    1    1    1    8   16    0.050376    0.084543
    1    1    1    9   16   -0.019773    0.002536
    1    1    1   10   16    0.011714   -0.016184
    1    1    1   11   16   -0.004976   -0.027548
    1    1    1   12   16    0.007612    0.013999
    1    1    1   13   16    0.005062    0.003425
    1    1    1   14   16   -0.015158   -0.003865
    1    1    1   15   16    0.028277    0.000450
    1    1    1   16   16   -0.017608   -0.000000
    1    1    1   17   16   -0.003248    0.020564
    1    1    1   18   16    0.000400   -0.015048
    1    1    1   19   16    0.020687   -0.002348
    1    1    1   20   16    0.005435   -0.005827
    1    1    1   21   16    0.003967    0.014477
    1    1    1   22   16   -0.019088    0.013210
    1    1    1    1   17    0.002686    0.000972
    1    1    1    2   17    0.035348    0.033787
    1    1    1    3   17    0.003934    0.021201
    1    1    1    4   17   -0.002540   -0.006563
    1    1    1    5   17    0.003213   -0.005131
    1    1    1    6   17   -0.002024    0.003690
    1    1    1    7   17    0.012222   -0.029389
    1    1    1    8   17    0.008580    0.002864
    1    1    1    9   17   -0.007177   -0.007595
    1    1    1   10   17   -0.001539   -0.003673
    1    1    1   11   17    0.027053    0.014269
    1    1    1   12   17   -0.003188    0.001950
    1    1    1   13   17   -0.007052   -0.000705
    1    1    1   14   17   -0.003270   -0.005348
    1    1    1   15   17    0.040368    0.008136
    1    1    1   16   17   -0.003248   -0.020564
    1    1    1   17   17    0.013716    0.000000
    1    1    1   18   17   -0.019955    0.019446
    1    1    1   19   17    0.001657   -0.011780
    1    1    1   20   17    0.009264    0.004835
    1    1    1   21   17    0.003295   -0.002993
    1    1    1   22   17   -0.009144   -0.006542
    1    1    1    1   18   -0.001028    0.007521
    1    1    1    2   18   -0.008831    0.113865
    1    1    1    3   18   -0.014030   -0.104829
    1    1    1    4   18   -0.011046    0.006813
    1    1    1    5   18    0.002772   -0.018570
    1    1    1    6   18   -0.001256   -0.006242
    1    1    1    7   18   -0.014121    0.083914
    1    1    1    8   18   -0.018857   -0.071175
    1    1    1    9   18    0.058173    0.023436
    1    1    1   10   18   -0.002852   -0.003931
    1    1    1   11   18    0.007623   -0.032613
    1    1    1   12   18    0.013903    0.004503
    1    1    1   13   18    0.002338    0.003460
    1    1    1   14   18    0.001165   -0.011480
    1    1    1   15   18   -0.042997    0.040969
    1    1    1   16   18    0.000400    0.015048
    1    1    1   17   18   -0.019955   -0.019446
    1    1    1   18   18    0.050822    0.000000
    1    1    1   19   18   -0.001427   -0.056238
    1    1    1   20   18   -0.032829   -0.005553
    1    1    1   21   18    0.012236    0.002413
    1    1    1   22   18   -0.017824    0.007475
    1    1    1    1   19   -0.004371    0.005770
    1    1    1    2   19    0.028867   -0.014671
    1    1    1    3   19   -0.042337    0.009993
    1    1    1    4   19    0.009125   -0.003378
    1    1    1    5   19    0.005940   -0.001427
    1    1    1    6   19    0.001449    0.004178
    1    1    1    7   19    0.009718   -0.012521
    1    1    1    8   19   -0.001637    0.038855
    1    1    1    9   19   -0.004824   -0.013598
    1    1    1   10   19    0.006378   -0.003265
    1    1    1   11   19    0.006028    0.039548
    1    1    1   12   19    0.006251   -0.011616
    1    1    1   13   19   -0.004327   -0.007783
    1    1    1   14   19   -0.002105    0.007061
    1    1    1   15   19    0.029467   -0.075583
    1    1    1   16   19    0.020687    0.002348
    1    1    1   17   19    0.001657    0.011780
    1    1    1   18   19   -0.001427    0.056238
    1    1    1   19   19   -0.014431   -0.000000
    1    1    1   20   19    0.015334    0.008208
    1    1    1   21   19   -0.009144   -0.007019
    1    1    1   22   19   -0.013387   -0.002506
    1    1    1    1   20    0.008624    0.003227
    1    1    1    2   20   -0.060747    0.002264
    1    1    1    3   20   -0.013069   -0.033814
    1    1    1    4   20   -0.002953   -0.001387
    1    1    1    5   20    0.000702   -0.001041
    1    1    1    6   20   -0.002404   -0.000769
    1    1    1    7   20   -0.006452   -0.004024
    1    1    1    8   20   -0.022434    0.018257
    1    1    1    9   20   -0.001582    0.002071
    1    1    1   10   20   -0.002104    0.001234
    1    1    1   11   20    0.004920   -0.000118
    1    1    1   12   20    0.000343   -0.002613
    1    1    1   13   20    0.003553   -0.000838
    1    1    1   14   20   -0.045577   -0.008219
    1    1    1   15   20   -0.004896    0.023026
    1    1    1   16   20    0.005435    0.005827
    1    1    1   17   20    0.009264   -0.004835
    1    1    1   18   20   -0.032829    0.005553
    1    1    1   19   20    0.015334   -0.008208
    1    1    1   20   20   -0.002236    0.000000
    1    1    1   21   20   -0.002660    0.001963
    1    1    1   22   20   -0.003855    0.002810
    1    1    1    1   21   -0.003983    0.000328
    1    1    1    2   21    0.028397   -0.003563
    1    1    1    3   21   -0.022084   -0.032847
    1    1    1    4   21   -0.002639   -0.001798
    1    1    1    5   21    0.022002   -0.000883
    1    1    1    6   21    0.000339    0.000379
    1    1    1    7   21   -0.001146   -0.010391
    1    1    1    8   21    0.016855   -0.002392
    1    1    1    9   21   -0.029760   -0.008259
    1    1    1   10   21   -0.005444   -0.005470
    1    1    1   11   21    0.003415   -0.000782
    1    1    1   12   21    0.001218    0.002267
    1    1    1   13   21   -0.003800    0.001312
    1    1    1   14   21   -0.019228   -0.003637
    1    1    1   15   21   -0.028978    0.000078
    1    1    1   16   21    0.003967   -0.014477
    1    1    1   17   21    0.003295    0.002993
    1    1    1   18   21    0.012236   -0.002413
    1    1    1   19   21   -0.009144    0.007019
    1    1    1   20   21   -0.002660   -0.001963
    1    1    1   21   21    0.002392   -0.000000
    1    1    1   22   21   -0.003930   -0.001187
    1    1    1    1   22   -0.003034   -0.002429
    1    1    1    2   22   -0.005644   -0.010716
    1    1    1    3   22   -0.004203    0.004269
    1    1    1    4   22    0.009032    0.000575
    1    1    1    5   22    0.022865   -0.003862
    1    1    1    6   22   -0.002415   -0.000334
    1    1    1    7   22   -0.003904    0.010047
    1    1    1    8   22    0.006275    0.005949
    1    1    1    9   22   -0.018649    0.007388
    1    1    1   10   22   -0.005576    0.002220
    1    1    1   11   22   -0.003688   -0.003880
    1    1    1   12   22   -0.002455   -0.002437
    1    1    1   13   22   -0.002763   -0.001311
    1    1    1   14   22   -0.005114    0.005007
    1    1    1   15   22    0.017086    0.051490
    1    1    1   16   22   -0.019088   -0.013210
    1    1    1   17   22   -0.009144    0.006542
    1    1    1   18   22   -0.017824   -0.007475
    1    1    1   19   22   -0.013387    0.002506
    1    1    1   20   22   -0.003855   -0.002810
    1    1    1   21   22   -0.003930    0.001187
    1    1    1   22   22   -0.003982    0.000000
