 written on  6Jan2020 at 00:07:08 
          36
          21
    4    2    4    4    2    4    4    2    4    2    1    2    4    2    4
    4    2    4    4    2    4
   -1   -1   -1    1    1   -0.001783    0.000000
   -1   -1   -1    2    1   -0.000135   -0.000322
   -1   -1   -1    3    1   -0.000896   -0.000086
   -1   -1   -1    4    1    0.000382   -0.000037
   -1   -1   -1    5    1    0.018578   -0.000031
   -1   -1   -1    6    1   -0.001431    0.000101
   -1   -1   -1    7    1   -0.000008   -0.000009
   -1   -1   -1    8    1    0.000065   -0.000080
   -1   -1   -1    9    1   -0.039567   -0.000232
   -1   -1   -1   10    1    0.003368    0.000734
   -1   -1   -1   11    1    0.003000    0.000908
   -1   -1   -1   12    1    0.001994    0.000160
   -1   -1   -1   13    1   -0.000561   -0.000101
   -1   -1   -1   14    1    0.003723    0.000068
   -1   -1   -1   15    1   -0.000382    0.000105
   -1   -1   -1   16    1   -0.000129    0.000098
   -1   -1   -1   17    1   -0.001543    0.000279
   -1   -1   -1   18    1    0.000525   -0.000114
   -1   -1   -1   19    1   -0.000079   -0.000106
   -1   -1   -1   20    1   -0.006507   -0.000046
   -1   -1   -1   21    1    0.002977    0.000212
   -1   -1   -1   22    1    0.002338   -0.000160
   -1   -1   -1   23    1   -0.000154    0.000154
   -1   -1   -1   24    1   -0.007063    0.000075
   -1   -1   -1   25    1   -0.013507    0.000347
   -1   -1   -1   26    1   -0.030110    0.000546
   -1   -1   -1   27    1   -0.003003   -0.000467
   -1   -1   -1   28    1    0.003140    0.000403
   -1   -1   -1   29    1    0.002274   -0.003904
   -1   -1   -1   30    1   -0.117323   -0.000671
   -1   -1   -1   31    1   -0.017589    0.000924
   -1   -1   -1   32    1    0.010462    0.000373
   -1   -1   -1   33    1   -0.468439   -0.000970
   -1   -1   -1   34    1   -0.853852   -0.000117
   -1   -1   -1   35    1   -0.016607   -0.000546
   -1   -1   -1   36    1    0.027181    0.000168
   -1   -1   -1    1    2   -0.000135    0.000322
   -1   -1   -1    2    2   -0.003212   -0.000000
   -1   -1   -1    3    2   -0.000094    0.000121
   -1   -1   -1    4    2   -0.000851    0.000033
   -1   -1   -1    5    2    0.001445   -0.000027
   -1   -1   -1    6    2    0.000045    0.000068
   -1   -1   -1    7    2    0.000096   -0.000021
   -1   -1   -1    8    2    0.000144    0.000017
   -1   -1   -1    9    2   -0.000980   -0.000067
   -1   -1   -1   10    2    0.001476   -0.005919
   -1   -1   -1   11    2   -0.003193   -0.000383
   -1   -1   -1   12    2   -0.000546   -0.000158
   -1   -1   -1   13    2   -0.002282   -0.000161
   -1   -1   -1   14    2   -0.009332    0.000389
   -1   -1   -1   15    2   -0.000555    0.000331
   -1   -1   -1   16    2    0.001096    0.000415
   -1   -1   -1   17    2    0.000213    0.000019
   -1   -1   -1   18    2    0.000688   -0.000013
   -1   -1   -1   19    2   -0.000205    0.000069
   -1   -1   -1   20    2   -0.000398   -0.000003
   -1   -1   -1   21    2    0.000157    0.000066
   -1   -1   -1   22    2    0.000832    0.000076
   -1   -1   -1   23    2   -0.000270   -0.000046
   -1   -1   -1   24    2   -0.000011    0.000026
   -1   -1   -1   25    2   -0.000654    0.002114
   -1   -1   -1   26    2   -0.004523    0.000520
   -1   -1   -1   27    2   -0.001186    0.000813
   -1   -1   -1   28    2    0.001326    0.000910
   -1   -1   -1   29    2   -0.001098   -0.001303
   -1   -1   -1   30    2   -0.012577   -0.000517
   -1   -1   -1   31    2    0.016762   -0.000140
   -1   -1   -1   32    2    0.003140   -0.000687
   -1   -1   -1   33    2   -0.050873    0.000943
   -1   -1   -1   34    2   -0.155245    0.000792
   -1   -1   -1   35    2    0.274209    0.002565
   -1   -1   -1   36    2   -0.505813    0.006380
   -1   -1   -1    1    3   -0.000896    0.000086
   -1   -1   -1    2    3   -0.000094   -0.000121
   -1   -1   -1    3    3    0.000128    0.000000
   -1   -1   -1    4    3   -0.000217    0.000088
   -1   -1   -1    5    3    0.000503   -0.000003
   -1   -1   -1    6    3   -0.000161    0.000028
   -1   -1   -1    7    3    0.000706    0.000023
   -1   -1   -1    8    3   -0.000082   -0.000019
   -1   -1   -1    9    3    0.004397    0.000013
   -1   -1   -1   10    3    0.002012    0.002306
   -1   -1   -1   11    3   -0.003467   -0.000825
   -1   -1   -1   12    3    0.001614   -0.000154
   -1   -1   -1   13    3   -0.000164   -0.001804
   -1   -1   -1   14    3    0.000062    0.001089
   -1   -1   -1   15    3    0.001341    0.000162
   -1   -1   -1   16    3    0.000215    0.000513
   -1   -1   -1   17    3    0.000618   -0.000045
   -1   -1   -1   18    3    0.000007   -0.000052
   -1   -1   -1   19    3   -0.001389    0.000015
   -1   -1   -1   20    3   -0.000289   -0.000013
   -1   -1   -1   21    3   -0.000027    0.000050
   -1   -1   -1   22    3   -0.000263   -0.000085
   -1   -1   -1   23    3   -0.001515   -0.000003
   -1   -1   -1   24    3   -0.000479    0.000005
   -1   -1   -1   25    3   -0.011736    0.005077
   -1   -1   -1   26    3   -0.012885   -0.000169
   -1   -1   -1   27    3    0.001289    0.000019
   -1   -1   -1   28    3   -0.004279    0.000536
   -1   -1   -1   29    3    0.009561   -0.002059
   -1   -1   -1   30    3   -0.038347   -0.000579
   -1   -1   -1   31    3   -0.000720    0.000043
   -1   -1   -1   32    3   -0.011370   -0.000320
   -1   -1   -1   33    3    0.159810   -0.000881
   -1   -1   -1   34    3   -0.059128   -0.001360
   -1   -1   -1   35    3    0.113703   -0.000245
   -1   -1   -1   36    3   -0.019101    0.000407
   -1   -1   -1    1    4    0.000382    0.000037
   -1   -1   -1    2    4   -0.000851   -0.000033
   -1   -1   -1    3    4   -0.000217   -0.000088
   -1   -1   -1    4    4   -0.000210    0.000000
   -1   -1   -1    5    4    0.000326    0.000031
   -1   -1   -1    6    4   -0.000582    0.000083
   -1   -1   -1    7    4   -0.000042   -0.000026
   -1   -1   -1    8    4    0.001061    0.000048
   -1   -1   -1    9    4   -0.039905    0.000359
   -1   -1   -1   10    4   -0.000476    0.004474
   -1   -1   -1   11    4   -0.000714   -0.000070
   -1   -1   -1   12    4    0.003399   -0.000126
   -1   -1   -1   13    4   -0.000219    0.000035
   -1   -1   -1   14    4   -0.000043   -0.000192
   -1   -1   -1   15    4   -0.000992   -0.000012
   -1   -1   -1   16    4    0.000846   -0.000096
   -1   -1   -1   17    4   -0.001505    0.000070
   -1   -1   -1   18    4   -0.000972    0.000035
   -1   -1   -1   19    4    0.000300   -0.000014
   -1   -1   -1   20    4    0.000516    0.000004
   -1   -1   -1   21    4    0.001527   -0.000173
   -1   -1   -1   22    4   -0.001047    0.000050
   -1   -1   -1   23    4    0.000207    0.000023
   -1   -1   -1   24    4    0.000428   -0.000022
   -1   -1   -1   25    4    0.010589    0.001863
   -1   -1   -1   26    4    0.009005   -0.000137
   -1   -1   -1   27    4   -0.003083    0.000701
   -1   -1   -1   28    4   -0.002395    0.001113
   -1   -1   -1   29    4   -0.007043   -0.000283
   -1   -1   -1   30    4    0.030155   -0.000314
   -1   -1   -1   31    4   -0.017737   -0.001076
   -1   -1   -1   32    4   -0.018535   -0.000845
   -1   -1   -1   33    4   -0.041654    0.001100
   -1   -1   -1   34    4   -0.028469    0.000578
   -1   -1   -1   35    4   -0.029538    0.000702
   -1   -1   -1   36    4    0.277186    0.000271
   -1   -1   -1    1    5    0.018578    0.000031
   -1   -1   -1    2    5    0.001445    0.000027
   -1   -1   -1    3    5    0.000503    0.000003
   -1   -1   -1    4    5    0.000326   -0.000031
   -1   -1   -1    5    5   -0.001747   -0.000000
   -1   -1   -1    6    5    0.000198   -0.000366
   -1   -1   -1    7    5   -0.001011   -0.000098
   -1   -1   -1    8    5    0.000648   -0.000100
   -1   -1   -1    9    5   -0.006713    0.000256
   -1   -1   -1   10    5   -0.000481   -0.000827
   -1   -1   -1   11    5    0.004268    0.000037
   -1   -1   -1   12    5    0.002272    0.000045
   -1   -1   -1   13    5   -0.002213   -0.000024
   -1   -1   -1   14    5   -0.000950   -0.000049
   -1   -1   -1   15    5   -0.005333    0.000012
   -1   -1   -1   16    5    0.003669    0.000019
   -1   -1   -1   17    5   -0.000670    0.000341
   -1   -1   -1   18    5   -0.002141    0.000041
   -1   -1   -1   19    5    0.001521   -0.000097
   -1   -1   -1   20    5    0.000926   -0.000090
   -1   -1   -1   21    5   -0.000167   -0.000125
   -1   -1   -1   22    5   -0.001356   -0.000043
   -1   -1   -1   23    5    0.001920    0.000114
   -1   -1   -1   24    5    0.000952   -0.000113
   -1   -1   -1   25    5    0.003889   -0.000992
   -1   -1   -1   26    5   -0.001012   -0.000018
   -1   -1   -1   27    5   -0.000095    0.000006
   -1   -1   -1   28    5    0.000244   -0.000072
   -1   -1   -1   29    5   -0.004534    0.000517
   -1   -1   -1   30    5   -0.005978   -0.000026
   -1   -1   -1   31    5    0.000101    0.000104
   -1   -1   -1   32    5   -0.000064    0.000108
   -1   -1   -1   33    5   -0.000046    0.000010
   -1   -1   -1   34    5   -0.033552    0.000465
   -1   -1   -1   35    5   -0.005335    0.000107
   -1   -1   -1   36    5    0.006091   -0.000066
   -1   -1   -1    1    6   -0.001431   -0.000101
   -1   -1   -1    2    6    0.000045   -0.000068
   -1   -1   -1    3    6   -0.000161   -0.000028
   -1   -1   -1    4    6   -0.000582   -0.000083
   -1   -1   -1    5    6    0.000198    0.000366
   -1   -1   -1    6    6   -0.001535    0.000000
   -1   -1   -1    7    6   -0.000234    0.000124
   -1   -1   -1    8    6    0.000398    0.000152
   -1   -1   -1    9    6    0.000775    0.000164
   -1   -1   -1   10    6    0.000012   -0.000090
   -1   -1   -1   11    6    0.000434   -0.000002
   -1   -1   -1   12    6   -0.000304    0.000061
   -1   -1   -1   13    6   -0.000041   -0.000438
   -1   -1   -1   14    6    0.000149   -0.000226
   -1   -1   -1   15    6    0.001035   -0.000137
   -1   -1   -1   16    6    0.000370    0.000380
   -1   -1   -1   17    6    0.000875   -0.003498
   -1   -1   -1   18    6   -0.000418    0.009610
   -1   -1   -1   19    6   -0.006835    0.001502
   -1   -1   -1   20    6    0.000929    0.000074
   -1   -1   -1   21    6    0.000518    0.003974
   -1   -1   -1   22    6   -0.000183    0.007984
   -1   -1   -1   23    6    0.006902   -0.001681
   -1   -1   -1   24    6   -0.000584    0.000277
   -1   -1   -1   25    6    0.000330   -0.000186
   -1   -1   -1   26    6    0.000448   -0.000151
   -1   -1   -1   27    6    0.000114   -0.000104
   -1   -1   -1   28    6    0.000675    0.000052
   -1   -1   -1   29    6   -0.000257    0.000107
   -1   -1   -1   30    6   -0.000890    0.000059
   -1   -1   -1   31    6    0.000133    0.000106
   -1   -1   -1   32    6    0.000592    0.000021
   -1   -1   -1   33    6    0.003072    0.000065
   -1   -1   -1   34    6    0.000298   -0.000010
   -1   -1   -1   35    6    0.005224   -0.000171
   -1   -1   -1   36    6    0.001273    0.000225
   -1   -1   -1    1    7   -0.000008    0.000009
   -1   -1   -1    2    7    0.000096    0.000021
   -1   -1   -1    3    7    0.000706   -0.000023
   -1   -1   -1    4    7   -0.000042    0.000026
   -1   -1   -1    5    7   -0.001011    0.000098
   -1   -1   -1    6    7   -0.000234   -0.000124
   -1   -1   -1    7    7   -0.000158   -0.000000
   -1   -1   -1    8    7   -0.000157    0.000047
   -1   -1   -1    9    7    0.003805    0.000004
   -1   -1   -1   10    7   -0.000192   -0.000333
   -1   -1   -1   11    7    0.000038   -0.000058
   -1   -1   -1   12    7    0.000620    0.000024
   -1   -1   -1   13    7   -0.000898    0.000028
   -1   -1   -1   14    7    0.000306   -0.000010
   -1   -1   -1   15    7    0.000040   -0.000014
   -1   -1   -1   16    7   -0.000870   -0.000005
   -1   -1   -1   17    7   -0.000049   -0.000320
   -1   -1   -1   18    7    0.000713   -0.000326
   -1   -1   -1   19    7    0.000339    0.000405
   -1   -1   -1   20    7    0.000515    0.000336
   -1   -1   -1   21    7    0.000069   -0.000132
   -1   -1   -1   22    7    0.000254   -0.000002
   -1   -1   -1   23    7   -0.000194   -0.000387
   -1   -1   -1   24    7   -0.000546    0.000005
   -1   -1   -1   25    7   -0.000309   -0.000346
   -1   -1   -1   26    7    0.000019    0.000034
   -1   -1   -1   27    7    0.001156   -0.000024
   -1   -1   -1   28    7   -0.000206   -0.000049
   -1   -1   -1   29    7   -0.000010    0.000159
   -1   -1   -1   30    7    0.000030   -0.000032
   -1   -1   -1   31    7    0.001759    0.000001
   -1   -1   -1   32    7   -0.000081    0.000026
   -1   -1   -1   33    7   -0.013967    0.000030
   -1   -1   -1   34    7   -0.013607    0.000160
   -1   -1   -1   35    7    0.000084    0.000020
   -1   -1   -1   36    7   -0.003497   -0.000012
   -1   -1   -1    1    8    0.000065    0.000080
   -1   -1   -1    2    8    0.000144   -0.000017
   -1   -1   -1    3    8   -0.000082    0.000019
   -1   -1   -1    4    8    0.001061   -0.000048
   -1   -1   -1    5    8    0.000648    0.000100
   -1   -1   -1    6    8    0.000398   -0.000152
   -1   -1   -1    7    8   -0.000157   -0.000047
   -1   -1   -1    8    8   -0.000142    0.000000
   -1   -1   -1    9    8    0.001680   -0.000051
   -1   -1   -1   10    8    0.000303   -0.000169
   -1   -1   -1   11    8    0.000335    0.000027
   -1   -1   -1   12    8   -0.000550   -0.000012
   -1   -1   -1   13    8    0.000300    0.000010
   -1   -1   -1   14    8   -0.000111   -0.000029
   -1   -1   -1   15    8   -0.000912    0.000000
   -1   -1   -1   16    8   -0.001209    0.000055
   -1   -1   -1   17    8    0.000185    0.000928
   -1   -1   -1   18    8    0.000846    0.000797
   -1   -1   -1   19    8    0.000921   -0.000152
   -1   -1   -1   20    8   -0.001085    0.000693
   -1   -1   -1   21    8    0.000311    0.000279
   -1   -1   -1   22    8    0.000062   -0.000208
   -1   -1   -1   23    8   -0.000289   -0.000106
   -1   -1   -1   24    8    0.000836   -0.000838
   -1   -1   -1   25    8   -0.000036   -0.000251
   -1   -1   -1   26    8    0.000093   -0.000065
   -1   -1   -1   27    8   -0.000189   -0.000050
   -1   -1   -1   28    8    0.001073   -0.000015
   -1   -1   -1   29    8    0.000055    0.000204
   -1   -1   -1   30    8   -0.000172    0.000030
   -1   -1   -1   31    8   -0.000171    0.000038
   -1   -1   -1   32    8    0.001313    0.000066
   -1   -1   -1   33    8    0.005521    0.000063
   -1   -1   -1   34    8    0.006953    0.000448
   -1   -1   -1   35    8   -0.001300   -0.000084
   -1   -1   -1   36    8   -0.002812   -0.000057
   -1   -1   -1    1    9   -0.039567    0.000232
   -1   -1   -1    2    9   -0.000980    0.000067
   -1   -1   -1    3    9    0.004397   -0.000013
   -1   -1   -1    4    9   -0.039905   -0.000359
   -1   -1   -1    5    9   -0.006713   -0.000256
   -1   -1   -1    6    9    0.000775   -0.000164
   -1   -1   -1    7    9    0.003805   -0.000004
   -1   -1   -1    8    9    0.001680    0.000051
   -1   -1   -1    9    9   -0.001555    0.000000
   -1   -1   -1   10    9   -0.000107    0.000035
   -1   -1   -1   11    9   -0.001316   -0.000094
   -1   -1   -1   12    9    0.000489   -0.000216
   -1   -1   -1   13    9   -0.015849   -0.000399
   -1   -1   -1   14    9   -0.015436   -0.000484
   -1   -1   -1   15    9    0.015328   -0.000219
   -1   -1   -1   16    9    0.011938    0.000127
   -1   -1   -1   17    9    0.002174   -0.000187
   -1   -1   -1   18    9   -0.002529    0.000216
   -1   -1   -1   19    9   -0.007114    0.000146
   -1   -1   -1   20    9    0.004389   -0.000164
   -1   -1   -1   21    9   -0.003287   -0.000064
   -1   -1   -1   22    9   -0.000783    0.000168
   -1   -1   -1   23    9   -0.005566    0.000031
   -1   -1   -1   24    9    0.003122    0.000354
   -1   -1   -1   25    9   -0.000342    0.000736
   -1   -1   -1   26    9   -0.001485   -0.000233
   -1   -1   -1   27    9    0.000104    0.000190
   -1   -1   -1   28    9   -0.002123    0.000084
   -1   -1   -1   29    9    0.000230    0.000583
   -1   -1   -1   30    9   -0.001195   -0.000297
   -1   -1   -1   31    9    0.000092   -0.000257
   -1   -1   -1   32    9   -0.001862   -0.000101
   -1   -1   -1   33    9   -0.001317   -0.000113
   -1   -1   -1   34    9    0.000491    0.000063
   -1   -1   -1   35    9    0.005474   -0.000061
   -1   -1   -1   36    9    0.003486   -0.000066
   -1   -1   -1    1   10    0.003368   -0.000734
   -1   -1   -1    2   10    0.001476    0.005919
   -1   -1   -1    3   10    0.002012   -0.002306
   -1   -1   -1    4   10   -0.000476   -0.004474
   -1   -1   -1    5   10   -0.000481    0.000827
   -1   -1   -1    6   10    0.000012    0.000090
   -1   -1   -1    7   10   -0.000192    0.000333
   -1   -1   -1    8   10    0.000303    0.000169
   -1   -1   -1    9   10   -0.000107   -0.000035
   -1   -1   -1   10   10    0.000059   -0.000000
   -1   -1   -1   11   10    0.000005    0.000016
   -1   -1   -1   12   10    0.000139    0.000005
   -1   -1   -1   13   10   -0.004704   -0.000236
   -1   -1   -1   14   10   -0.001603    0.001291
   -1   -1   -1   15   10   -0.000309    0.002835
   -1   -1   -1   16   10    0.004299    0.002782
   -1   -1   -1   17   10    0.000155    0.000344
   -1   -1   -1   18   10   -0.000331   -0.000596
   -1   -1   -1   19   10   -0.000275   -0.000518
   -1   -1   -1   20   10    0.000780   -0.000271
   -1   -1   -1   21   10   -0.000167   -0.000239
   -1   -1   -1   22   10   -0.000176   -0.000383
   -1   -1   -1   23   10    0.000337   -0.000680
   -1   -1   -1   24   10    0.000134   -0.000032
   -1   -1   -1   25   10   -0.000362   -0.000049
   -1   -1   -1   26   10    0.000070    0.000034
   -1   -1   -1   27   10   -0.000062   -0.000513
   -1   -1   -1   28   10   -0.000026   -0.000131
   -1   -1   -1   29   10    0.000268    0.000294
   -1   -1   -1   30   10   -0.000107    0.000103
   -1   -1   -1   31   10    0.000352    0.000229
   -1   -1   -1   32   10   -0.000132    0.000224
   -1   -1   -1   33   10   -0.000142   -0.000325
   -1   -1   -1   34   10   -0.000378   -0.000147
   -1   -1   -1   35   10    0.000267   -0.000460
   -1   -1   -1   36   10   -0.000285   -0.000299
   -1   -1   -1    1   11    0.003000   -0.000908
   -1   -1   -1    2   11   -0.003193    0.000383
   -1   -1   -1    3   11   -0.003467    0.000825
   -1   -1   -1    4   11   -0.000714    0.000070
   -1   -1   -1    5   11    0.004268   -0.000037
   -1   -1   -1    6   11    0.000434    0.000002
   -1   -1   -1    7   11    0.000038    0.000058
   -1   -1   -1    8   11    0.000335   -0.000027
   -1   -1   -1    9   11   -0.001316    0.000094
   -1   -1   -1   10   11    0.000005   -0.000016
   -1   -1   -1   11   11   -0.000363   -0.000000
   -1   -1   -1   12   11   -0.000233   -0.000178
   -1   -1   -1   13   11    0.000100   -0.000616
   -1   -1   -1   14   11    0.013474    0.000034
   -1   -1   -1   15   11    0.000746    0.000169
   -1   -1   -1   16   11    0.002307   -0.000309
   -1   -1   -1   17   11    0.000918    0.000030
   -1   -1   -1   18   11    0.000198    0.000013
   -1   -1   -1   19   11   -0.000088   -0.000067
   -1   -1   -1   20   11   -0.000741    0.000143
   -1   -1   -1   21   11   -0.001013   -0.000018
   -1   -1   -1   22   11    0.000347    0.000002
   -1   -1   -1   23   11   -0.000133   -0.000195
   -1   -1   -1   24   11   -0.001072   -0.000038
   -1   -1   -1   25   11    0.000212    0.000710
   -1   -1   -1   26   11   -0.000184    0.000231
   -1   -1   -1   27   11   -0.000301    0.000010
   -1   -1   -1   28   11    0.000129   -0.000478
   -1   -1   -1   29   11   -0.000346   -0.000806
   -1   -1   -1   30   11   -0.000426    0.000121
   -1   -1   -1   31   11   -0.000322   -0.000027
   -1   -1   -1   32   11   -0.000253    0.000287
   -1   -1   -1   33   11    0.001418    0.000080
   -1   -1   -1   34   11    0.000987   -0.000020
   -1   -1   -1   35   11    0.000157    0.000139
   -1   -1   -1   36   11    0.000873    0.000044
   -1   -1   -1    1   12    0.001994   -0.000160
   -1   -1   -1    2   12   -0.000546    0.000158
   -1   -1   -1    3   12    0.001614    0.000154
   -1   -1   -1    4   12    0.003399    0.000126
   -1   -1   -1    5   12    0.002272   -0.000045
   -1   -1   -1    6   12   -0.000304   -0.000061
   -1   -1   -1    7   12    0.000620   -0.000024
   -1   -1   -1    8   12   -0.000550    0.000012
   -1   -1   -1    9   12    0.000489    0.000216
   -1   -1   -1   10   12    0.000139   -0.000005
   -1   -1   -1   11   12   -0.000233    0.000178
   -1   -1   -1   12   12   -0.000196   -0.000000
   -1   -1   -1   13   12   -0.000851   -0.000492
   -1   -1   -1   14   12    0.006787   -0.000321
   -1   -1   -1   15   12    0.002364   -0.000101
   -1   -1   -1   16   12   -0.003275   -0.000001
   -1   -1   -1   17   12   -0.000252    0.000032
   -1   -1   -1   18   12   -0.000201    0.000074
   -1   -1   -1   19   12   -0.000639    0.000017
   -1   -1   -1   20   12   -0.000961    0.000010
   -1   -1   -1   21   12    0.000666    0.000056
   -1   -1   -1   22   12   -0.000198    0.000021
   -1   -1   -1   23   12   -0.000978    0.000058
   -1   -1   -1   24   12   -0.000929    0.000046
   -1   -1   -1   25   12   -0.000005    0.000031
   -1   -1   -1   26   12   -0.000933    0.000108
   -1   -1   -1   27   12    0.000109   -0.000117
   -1   -1   -1   28   12    0.000158   -0.000290
   -1   -1   -1   29   12    0.000699    0.000125
   -1   -1   -1   30   12   -0.000751    0.000278
   -1   -1   -1   31   12    0.000053   -0.000054
   -1   -1   -1   32   12    0.000087    0.000142
   -1   -1   -1   33   12    0.000653   -0.000026
   -1   -1   -1   34   12    0.000430   -0.000015
   -1   -1   -1   35   12    0.000868   -0.000042
   -1   -1   -1   36   12   -0.000957   -0.000014
   -1   -1   -1    1   13   -0.000561    0.000101
   -1   -1   -1    2   13   -0.002282    0.000161
   -1   -1   -1    3   13   -0.000164    0.001804
   -1   -1   -1    4   13   -0.000219   -0.000035
   -1   -1   -1    5   13   -0.002213    0.000024
   -1   -1   -1    6   13   -0.000041    0.000438
   -1   -1   -1    7   13   -0.000898   -0.000028
   -1   -1   -1    8   13    0.000300   -0.000010
   -1   -1   -1    9   13   -0.015849    0.000399
   -1   -1   -1   10   13   -0.004704    0.000236
   -1   -1   -1   11   13    0.000100    0.000616
   -1   -1   -1   12   13   -0.000851    0.000492
   -1   -1   -1   13   13    0.000930   -0.000000
   -1   -1   -1   14   13   -0.000740   -0.002880
   -1   -1   -1   15   13   -0.004050   -0.000141
   -1   -1   -1   16   13    0.002845   -0.002361
   -1   -1   -1   17   13   -0.000401    0.000007
   -1   -1   -1   18   13    0.000290    0.000103
   -1   -1   -1   19   13    0.001207   -0.000018
   -1   -1   -1   20   13    0.000894    0.000082
   -1   -1   -1   21   13    0.000049   -0.000030
   -1   -1   -1   22   13    0.000340   -0.000019
   -1   -1   -1   23   13    0.002045    0.000017
   -1   -1   -1   24   13    0.001250   -0.000068
   -1   -1   -1   25   13    0.010250   -0.005881
   -1   -1   -1   26   13    0.021404    0.000514
   -1   -1   -1   27   13    0.002283   -0.001308
   -1   -1   -1   28   13    0.000318   -0.000756
   -1   -1   -1   29   13   -0.014545    0.001136
   -1   -1   -1   30   13    0.060323    0.000302
   -1   -1   -1   31   13   -0.001960    0.000968
   -1   -1   -1   32   13   -0.005533    0.000471
   -1   -1   -1   33   13   -0.141298   -0.001859
   -1   -1   -1   34   13    0.029828   -0.000285
   -1   -1   -1   35   13   -0.428377    0.000786
   -1   -1   -1   36   13    0.498988    0.001610
   -1   -1   -1    1   14    0.003723   -0.000068
   -1   -1   -1    2   14   -0.009332   -0.000389
   -1   -1   -1    3   14    0.000062   -0.001089
   -1   -1   -1    4   14   -0.000043    0.000192
   -1   -1   -1    5   14   -0.000950    0.000049
   -1   -1   -1    6   14    0.000149    0.000226
   -1   -1   -1    7   14    0.000306    0.000010
   -1   -1   -1    8   14   -0.000111    0.000029
   -1   -1   -1    9   14   -0.015436    0.000484
   -1   -1   -1   10   14   -0.001603   -0.001291
   -1   -1   -1   11   14    0.013474   -0.000034
   -1   -1   -1   12   14    0.006787    0.000321
   -1   -1   -1   13   14   -0.000740    0.002880
   -1   -1   -1   14   14    0.000167   -0.000000
   -1   -1   -1   15   14   -0.002613   -0.000029
   -1   -1   -1   16   14    0.000777   -0.000126
   -1   -1   -1   17   14   -0.000774   -0.000112
   -1   -1   -1   18   14   -0.001154    0.000159
   -1   -1   -1   19   14   -0.000081   -0.000089
   -1   -1   -1   20   14   -0.000008   -0.000353
   -1   -1   -1   21   14    0.000397    0.000012
   -1   -1   -1   22   14   -0.002080    0.000164
   -1   -1   -1   23   14    0.000742    0.000067
   -1   -1   -1   24   14    0.000557    0.000301
   -1   -1   -1   25   14    0.004622   -0.001979
   -1   -1   -1   26   14   -0.011136   -0.000043
   -1   -1   -1   27   14    0.000332    0.000197
   -1   -1   -1   28   14   -0.000070   -0.000192
   -1   -1   -1   29   14   -0.006132    0.000111
   -1   -1   -1   30   14   -0.043242    0.000048
   -1   -1   -1   31   14    0.000733   -0.000166
   -1   -1   -1   32   14   -0.000342    0.000594
   -1   -1   -1   33   14   -0.030434    0.003431
   -1   -1   -1   34   14   -0.083582    0.001437
   -1   -1   -1   35   14    0.000228    0.000401
   -1   -1   -1   36   14    0.010039   -0.000118
   -1   -1   -1    1   15   -0.000382   -0.000105
   -1   -1   -1    2   15   -0.000555   -0.000331
   -1   -1   -1    3   15    0.001341   -0.000162
   -1   -1   -1    4   15   -0.000992    0.000012
   -1   -1   -1    5   15   -0.005333   -0.000012
   -1   -1   -1    6   15    0.001035    0.000137
   -1   -1   -1    7   15    0.000040    0.000014
   -1   -1   -1    8   15   -0.000912   -0.000000
   -1   -1   -1    9   15    0.015328    0.000219
   -1   -1   -1   10   15   -0.000309   -0.002835
   -1   -1   -1   11   15    0.000746   -0.000169
   -1   -1   -1   12   15    0.002364    0.000101
   -1   -1   -1   13   15   -0.004050    0.000141
   -1   -1   -1   14   15   -0.002613    0.000029
   -1   -1   -1   15   15    0.000582    0.000000
   -1   -1   -1   16   15    0.000141    0.000058
   -1   -1   -1   17   15    0.001130   -0.000091
   -1   -1   -1   18   15    0.000512    0.000012
   -1   -1   -1   19   15   -0.000037    0.000028
   -1   -1   -1   20   15    0.001039   -0.000032
   -1   -1   -1   21   15   -0.001463    0.000069
   -1   -1   -1   22   15    0.000000    0.000028
   -1   -1   -1   23   15    0.000092   -0.000025
   -1   -1   -1   24   15    0.001427    0.000028
   -1   -1   -1   25   15   -0.001178   -0.001432
   -1   -1   -1   26   15    0.000338   -0.000205
   -1   -1   -1   27   15    0.001778   -0.000099
   -1   -1   -1   28   15   -0.000434   -0.000215
   -1   -1   -1   29   15    0.000523    0.000835
   -1   -1   -1   30   15    0.001849   -0.000071
   -1   -1   -1   31   15    0.014205   -0.000179
   -1   -1   -1   32   15    0.000409    0.000039
   -1   -1   -1   33   15   -0.377021   -0.001488
   -1   -1   -1   34   15   -0.063334   -0.000076
   -1   -1   -1   35   15    0.060756   -0.000310
   -1   -1   -1   36   15   -0.097676    0.000859
   -1   -1   -1    1   16   -0.000129   -0.000098
   -1   -1   -1    2   16    0.001096   -0.000415
   -1   -1   -1    3   16    0.000215   -0.000513
   -1   -1   -1    4   16    0.000846    0.000096
   -1   -1   -1    5   16    0.003669   -0.000019
   -1   -1   -1    6   16    0.000370   -0.000380
   -1   -1   -1    7   16   -0.000870    0.000005
   -1   -1   -1    8   16   -0.001209   -0.000055
   -1   -1   -1    9   16    0.011938   -0.000127
   -1   -1   -1   10   16    0.004299   -0.002782
   -1   -1   -1   11   16    0.002307    0.000309
   -1   -1   -1   12   16   -0.003275    0.000001
   -1   -1   -1   13   16    0.002845    0.002361
   -1   -1   -1   14   16    0.000777    0.000126
   -1   -1   -1   15   16    0.000141   -0.000058
   -1   -1   -1   16   16    0.000180    0.000000
   -1   -1   -1   17   16    0.000287    0.000122
   -1   -1   -1   18   16    0.000257   -0.000041
   -1   -1   -1   19   16    0.001238    0.000027
   -1   -1   -1   20   16   -0.001336    0.000010
   -1   -1   -1   21   16   -0.000753    0.000102
   -1   -1   -1   22   16    0.000098   -0.000058
   -1   -1   -1   23   16    0.001162   -0.000043
   -1   -1   -1   24   16   -0.001887    0.000019
   -1   -1   -1   25   16   -0.000108   -0.002190
   -1   -1   -1   26   16   -0.000963   -0.000061
   -1   -1   -1   27   16   -0.001100   -0.000051
   -1   -1   -1   28   16    0.002623   -0.000023
   -1   -1   -1   29   16    0.005309    0.001241
   -1   -1   -1   30   16   -0.000989    0.000159
   -1   -1   -1   31   16    0.000452    0.000063
   -1   -1   -1   32   16    0.019203    0.000052
   -1   -1   -1   33   16    0.360940   -0.001570
   -1   -1   -1   34   16    0.068802    0.000301
   -1   -1   -1   35   16   -0.076350   -0.000970
   -1   -1   -1   36   16   -0.162109   -0.000121
   -1   -1   -1    1   17   -0.001543   -0.000279
   -1   -1   -1    2   17    0.000213   -0.000019
   -1   -1   -1    3   17    0.000618    0.000045
   -1   -1   -1    4   17   -0.001505   -0.000070
   -1   -1   -1    5   17   -0.000670   -0.000341
   -1   -1   -1    6   17    0.000875    0.003498
   -1   -1   -1    7   17   -0.000049    0.000320
   -1   -1   -1    8   17    0.000185   -0.000928
   -1   -1   -1    9   17    0.002174    0.000187
   -1   -1   -1   10   17    0.000155   -0.000344
   -1   -1   -1   11   17    0.000918   -0.000030
   -1   -1   -1   12   17   -0.000252   -0.000032
   -1   -1   -1   13   17   -0.000401   -0.000007
   -1   -1   -1   14   17   -0.000774    0.000112
   -1   -1   -1   15   17    0.001130    0.000091
   -1   -1   -1   16   17    0.000287   -0.000122
   -1   -1   -1   17   17   -0.000001   -0.000000
   -1   -1   -1   18   17    0.000315   -0.001446
   -1   -1   -1   19   17   -0.002816   -0.003772
   -1   -1   -1   20   17   -0.001284   -0.006132
   -1   -1   -1   21   17   -0.000327   -0.000617
   -1   -1   -1   22   17   -0.000170    0.000706
   -1   -1   -1   23   17    0.003816    0.003220
   -1   -1   -1   24   17    0.000882    0.005582
   -1   -1   -1   25   17    0.000177   -0.000480
   -1   -1   -1   26   17   -0.000137    0.000039
   -1   -1   -1   27   17    0.000350    0.000148
   -1   -1   -1   28   17    0.001649    0.000103
   -1   -1   -1   29   17   -0.000643    0.000273
   -1   -1   -1   30   17    0.000164   -0.000192
   -1   -1   -1   31   17    0.000246   -0.000156
   -1   -1   -1   32   17    0.000805    0.000099
   -1   -1   -1   33   17   -0.000392    0.000299
   -1   -1   -1   34   17    0.005358    0.000373
   -1   -1   -1   35   17   -0.001215   -0.000047
   -1   -1   -1   36   17    0.001574   -0.000416
   -1   -1   -1    1   18    0.000525    0.000114
   -1   -1   -1    2   18    0.000688    0.000013
   -1   -1   -1    3   18    0.000007    0.000052
   -1   -1   -1    4   18   -0.000972   -0.000035
   -1   -1   -1    5   18   -0.002141   -0.000041
   -1   -1   -1    6   18   -0.000418   -0.009610
   -1   -1   -1    7   18    0.000713    0.000326
   -1   -1   -1    8   18    0.000846   -0.000797
   -1   -1   -1    9   18   -0.002529   -0.000216
   -1   -1   -1   10   18   -0.000331    0.000596
   -1   -1   -1   11   18    0.000198   -0.000013
   -1   -1   -1   12   18   -0.000201   -0.000074
   -1   -1   -1   13   18    0.000290   -0.000103
   -1   -1   -1   14   18   -0.001154   -0.000159
   -1   -1   -1   15   18    0.000512   -0.000012
   -1   -1   -1   16   18    0.000257    0.000041
   -1   -1   -1   17   18    0.000315    0.001446
   -1   -1   -1   18   18    0.000335   -0.000000
   -1   -1   -1   19   18   -0.000545    0.000246
   -1   -1   -1   20   18    0.000111    0.001569
   -1   -1   -1   21   18    0.000997   -0.000286
   -1   -1   -1   22   18    0.000326    0.000045
   -1   -1   -1   23   18   -0.001656   -0.000327
   -1   -1   -1   24   18    0.001313   -0.001667
   -1   -1   -1   25   18   -0.001237    0.000935
   -1   -1   -1   26   18   -0.002326   -0.000056
   -1   -1   -1   27   18    0.000200   -0.000056
   -1   -1   -1   28   18   -0.000107    0.000130
   -1   -1   -1   29   18    0.000938   -0.000973
   -1   -1   -1   30   18   -0.005248   -0.000117
   -1   -1   -1   31   18   -0.000401    0.000039
   -1   -1   -1   32   18   -0.001930   -0.000050
   -1   -1   -1   33   18   -0.010192   -0.000057
   -1   -1   -1   34   18    0.010282   -0.000015
   -1   -1   -1   35   18    0.029731    0.000113
   -1   -1   -1   36   18    0.019138   -0.000050
   -1   -1   -1    1   19   -0.000079    0.000106
   -1   -1   -1    2   19   -0.000205   -0.000069
   -1   -1   -1    3   19   -0.001389   -0.000015
   -1   -1   -1    4   19    0.000300    0.000014
   -1   -1   -1    5   19    0.001521    0.000097
   -1   -1   -1    6   19   -0.006835   -0.001502
   -1   -1   -1    7   19    0.000339   -0.000405
   -1   -1   -1    8   19    0.000921    0.000152
   -1   -1   -1    9   19   -0.007114   -0.000146
   -1   -1   -1   10   19   -0.000275    0.000518
   -1   -1   -1   11   19   -0.000088    0.000067
   -1   -1   -1   12   19   -0.000639   -0.000017
   -1   -1   -1   13   19    0.001207    0.000018
   -1   -1   -1   14   19   -0.000081    0.000089
   -1   -1   -1   15   19   -0.000037   -0.000028
   -1   -1   -1   16   19    0.001238   -0.000027
   -1   -1   -1   17   19   -0.002816    0.003772
   -1   -1   -1   18   19   -0.000545   -0.000246
   -1   -1   -1   19   19    0.000425   -0.000000
   -1   -1   -1   20   19    0.000310    0.000261
   -1   -1   -1   21   19    0.003564   -0.001236
   -1   -1   -1   22   19   -0.000473   -0.000448
   -1   -1   -1   23   19   -0.000494    0.000015
   -1   -1   -1   24   19   -0.000990   -0.000325
   -1   -1   -1   25   19    0.000346    0.000643
   -1   -1   -1   26   19   -0.000066   -0.000093
   -1   -1   -1   27   19   -0.002275    0.000013
   -1   -1   -1   28   19    0.000243   -0.000053
   -1   -1   -1   29   19   -0.000204   -0.000323
   -1   -1   -1   30   19   -0.000080    0.000021
   -1   -1   -1   31   19   -0.003556    0.000024
   -1   -1   -1   32   19   -0.000287   -0.000105
   -1   -1   -1   33   19    0.019345   -0.000291
   -1   -1   -1   34   19    0.033660   -0.000200
   -1   -1   -1   35   19   -0.003107    0.000099
   -1   -1   -1   36   19    0.003459    0.000097
   -1   -1   -1    1   20   -0.006507    0.000046
   -1   -1   -1    2   20   -0.000398    0.000003
   -1   -1   -1    3   20   -0.000289    0.000013
   -1   -1   -1    4   20    0.000516   -0.000004
   -1   -1   -1    5   20    0.000926    0.000090
   -1   -1   -1    6   20    0.000929   -0.000074
   -1   -1   -1    7   20    0.000515   -0.000336
   -1   -1   -1    8   20   -0.001085   -0.000693
   -1   -1   -1    9   20    0.004389    0.000164
   -1   -1   -1   10   20    0.000780    0.000271
   -1   -1   -1   11   20   -0.000741   -0.000143
   -1   -1   -1   12   20   -0.000961   -0.000010
   -1   -1   -1   13   20    0.000894   -0.000082
   -1   -1   -1   14   20   -0.000008    0.000353
   -1   -1   -1   15   20    0.001039    0.000032
   -1   -1   -1   16   20   -0.001336   -0.000010
   -1   -1   -1   17   20   -0.001284    0.006132
   -1   -1   -1   18   20    0.000111   -0.001569
   -1   -1   -1   19   20    0.000310   -0.000261
   -1   -1   -1   20   20    0.000071    0.000000
   -1   -1   -1   21   20   -0.001436   -0.004721
   -1   -1   -1   22   20    0.000531   -0.001733
   -1   -1   -1   23   20   -0.001107    0.000281
   -1   -1   -1   24   20   -0.000827   -0.000186
   -1   -1   -1   25   20   -0.002355    0.000514
   -1   -1   -1   26   20   -0.000675    0.000029
   -1   -1   -1   27   20   -0.000169    0.000079
   -1   -1   -1   28   20    0.000741    0.000004
   -1   -1   -1   29   20    0.002328   -0.000283
   -1   -1   -1   30   20   -0.000278   -0.000047
   -1   -1   -1   31   20    0.000038    0.000125
   -1   -1   -1   32   20    0.001711   -0.000056
   -1   -1   -1   33   20    0.013020   -0.000183
   -1   -1   -1   34   20    0.020421    0.000005
   -1   -1   -1   35   20    0.004222    0.000035
   -1   -1   -1   36   20   -0.010266   -0.000006
   -1   -1   -1    1   21    0.002977   -0.000212
   -1   -1   -1    2   21    0.000157   -0.000066
   -1   -1   -1    3   21   -0.000027   -0.000050
   -1   -1   -1    4   21    0.001527    0.000173
   -1   -1   -1    5   21   -0.000167    0.000125
   -1   -1   -1    6   21    0.000518   -0.003974
   -1   -1   -1    7   21    0.000069    0.000132
   -1   -1   -1    8   21    0.000311   -0.000279
   -1   -1   -1    9   21   -0.003287    0.000064
   -1   -1   -1   10   21   -0.000167    0.000239
   -1   -1   -1   11   21   -0.001013    0.000018
   -1   -1   -1   12   21    0.000666   -0.000056
   -1   -1   -1   13   21    0.000049    0.000030
   -1   -1   -1   14   21    0.000397   -0.000012
   -1   -1   -1   15   21   -0.001463   -0.000069
   -1   -1   -1   16   21   -0.000753   -0.000102
   -1   -1   -1   17   21   -0.000327    0.000617
   -1   -1   -1   18   21    0.000997    0.000286
   -1   -1   -1   19   21    0.003564    0.001236
   -1   -1   -1   20   21   -0.001436    0.004721
   -1   -1   -1   21   21   -0.000475    0.000000
   -1   -1   -1   22   21   -0.000048   -0.000569
   -1   -1   -1   23   21   -0.003597   -0.001502
   -1   -1   -1   24   21    0.001891   -0.004962
   -1   -1   -1   25   21    0.000433    0.000184
   -1   -1   -1   26   21    0.000524   -0.000124
   -1   -1   -1   27   21    0.000225   -0.000213
   -1   -1   -1   28   21   -0.001679    0.000091
   -1   -1   -1   29   21    0.000006   -0.000032
   -1   -1   -1   30   21    0.000423    0.000180
   -1   -1   -1   31   21   -0.000498    0.000239
   -1   -1   -1   32   21   -0.002807   -0.000002
   -1   -1   -1   33   21   -0.005906    0.000251
   -1   -1   -1   34   21   -0.011262    0.000259
   -1   -1   -1   35   21    0.004991    0.000226
   -1   -1   -1   36   21    0.006346    0.000276
   -1   -1   -1    1   22    0.002338    0.000160
   -1   -1   -1    2   22    0.000832   -0.000076
   -1   -1   -1    3   22   -0.000263    0.000085
   -1   -1   -1    4   22   -0.001047   -0.000050
   -1   -1   -1    5   22   -0.001356    0.000043
   -1   -1   -1    6   22   -0.000183   -0.007984
   -1   -1   -1    7   22    0.000254    0.000002
   -1   -1   -1    8   22    0.000062    0.000208
   -1   -1   -1    9   22   -0.000783   -0.000168
   -1   -1   -1   10   22   -0.000176    0.000383
   -1   -1   -1   11   22    0.000347   -0.000002
   -1   -1   -1   12   22   -0.000198   -0.000021
   -1   -1   -1   13   22    0.000340    0.000019
   -1   -1   -1   14   22   -0.002080   -0.000164
   -1   -1   -1   15   22    0.000000   -0.000028
   -1   -1   -1   16   22    0.000098    0.000058
   -1   -1   -1   17   22   -0.000170   -0.000706
   -1   -1   -1   18   22    0.000326   -0.000045
   -1   -1   -1   19   22   -0.000473    0.000448
   -1   -1   -1   20   22    0.000531    0.001733
   -1   -1   -1   21   22   -0.000048    0.000569
   -1   -1   -1   22   22    0.001073   -0.000000
   -1   -1   -1   23   22   -0.001342   -0.000383
   -1   -1   -1   24   22    0.000515   -0.001468
   -1   -1   -1   25   22   -0.000926    0.000449
   -1   -1   -1   26   22   -0.000957   -0.000036
   -1   -1   -1   27   22    0.000020   -0.000029
   -1   -1   -1   28   22    0.000107    0.000005
   -1   -1   -1   29   22    0.000395   -0.000437
   -1   -1   -1   30   22   -0.002075   -0.000057
   -1   -1   -1   31   22   -0.000134   -0.000022
   -1   -1   -1   32   22   -0.000496   -0.000053
   -1   -1   -1   33   22    0.001488    0.000127
   -1   -1   -1   34   22    0.005473    0.000052
   -1   -1   -1   35   22    0.010931   -0.000056
   -1   -1   -1   36   22    0.006001    0.000052
   -1   -1   -1    1   23   -0.000154   -0.000154
   -1   -1   -1    2   23   -0.000270    0.000046
   -1   -1   -1    3   23   -0.001515    0.000003
   -1   -1   -1    4   23    0.000207   -0.000023
   -1   -1   -1    5   23    0.001920   -0.000114
   -1   -1   -1    6   23    0.006902    0.001681
   -1   -1   -1    7   23   -0.000194    0.000387
   -1   -1   -1    8   23   -0.000289    0.000106
   -1   -1   -1    9   23   -0.005566   -0.000031
   -1   -1   -1   10   23    0.000337    0.000680
   -1   -1   -1   11   23   -0.000133    0.000195
   -1   -1   -1   12   23   -0.000978   -0.000058
   -1   -1   -1   13   23    0.002045   -0.000017
   -1   -1   -1   14   23    0.000742   -0.000067
   -1   -1   -1   15   23    0.000092    0.000025
   -1   -1   -1   16   23    0.001162    0.000043
   -1   -1   -1   17   23    0.003816   -0.003220
   -1   -1   -1   18   23   -0.001656    0.000327
   -1   -1   -1   19   23   -0.000494   -0.000015
   -1   -1   -1   20   23   -0.001107   -0.000281
   -1   -1   -1   21   23   -0.003597    0.001502
   -1   -1   -1   22   23   -0.001342    0.000383
   -1   -1   -1   23   23    0.000410   -0.000000
   -1   -1   -1   24   23    0.000168    0.000358
   -1   -1   -1   25   23    0.000432    0.000592
   -1   -1   -1   26   23   -0.000084    0.000002
   -1   -1   -1   27   23   -0.002020   -0.000044
   -1   -1   -1   28   23    0.000031    0.000100
   -1   -1   -1   29   23    0.000359    0.000008
   -1   -1   -1   30   23   -0.000137    0.000030
   -1   -1   -1   31   23   -0.002383   -0.000004
   -1   -1   -1   32   23   -0.000005    0.000068
   -1   -1   -1   33   23    0.010525    0.000377
   -1   -1   -1   34   23    0.016089    0.000376
   -1   -1   -1   35   23    0.001978   -0.000075
   -1   -1   -1   36   23    0.003980   -0.000052
   -1   -1   -1    1   24   -0.007063   -0.000075
   -1   -1   -1    2   24   -0.000011   -0.000026
   -1   -1   -1    3   24   -0.000479   -0.000005
   -1   -1   -1    4   24    0.000428    0.000022
   -1   -1   -1    5   24    0.000952    0.000113
   -1   -1   -1    6   24   -0.000584   -0.000277
   -1   -1   -1    7   24   -0.000546   -0.000005
   -1   -1   -1    8   24    0.000836    0.000838
   -1   -1   -1    9   24    0.003122   -0.000354
   -1   -1   -1   10   24    0.000134    0.000032
   -1   -1   -1   11   24   -0.001072    0.000038
   -1   -1   -1   12   24   -0.000929   -0.000046
   -1   -1   -1   13   24    0.001250    0.000068
   -1   -1   -1   14   24    0.000557   -0.000301
   -1   -1   -1   15   24    0.001427   -0.000028
   -1   -1   -1   16   24   -0.001887   -0.000019
   -1   -1   -1   17   24    0.000882   -0.005582
   -1   -1   -1   18   24    0.001313    0.001667
   -1   -1   -1   19   24   -0.000990    0.000325
   -1   -1   -1   20   24   -0.000827    0.000186
   -1   -1   -1   21   24    0.001891    0.004962
   -1   -1   -1   22   24    0.000515    0.001468
   -1   -1   -1   23   24    0.000168   -0.000358
   -1   -1   -1   24   24   -0.000163    0.000000
   -1   -1   -1   25   24   -0.001101    0.000200
   -1   -1   -1   26   24   -0.000418   -0.000071
   -1   -1   -1   27   24    0.000008   -0.000107
   -1   -1   -1   28   24    0.000502    0.000013
   -1   -1   -1   29   24    0.001467   -0.000002
   -1   -1   -1   30   24    0.000019    0.000000
   -1   -1   -1   31   24   -0.000118   -0.000067
   -1   -1   -1   32   24    0.000704   -0.000035
   -1   -1   -1   33   24    0.003984   -0.000401
   -1   -1   -1   34   24    0.007959   -0.000416
   -1   -1   -1   35   24    0.003120    0.000073
   -1   -1   -1   36   24   -0.003298    0.000131
   -1   -1   -1    1   25   -0.013507   -0.000347
   -1   -1   -1    2   25   -0.000654   -0.002114
   -1   -1   -1    3   25   -0.011736   -0.005077
   -1   -1   -1    4   25    0.010589   -0.001863
   -1   -1   -1    5   25    0.003889    0.000992
   -1   -1   -1    6   25    0.000330    0.000186
   -1   -1   -1    7   25   -0.000309    0.000346
   -1   -1   -1    8   25   -0.000036    0.000251
   -1   -1   -1    9   25   -0.000342   -0.000736
   -1   -1   -1   10   25   -0.000362    0.000049
   -1   -1   -1   11   25    0.000212   -0.000710
   -1   -1   -1   12   25   -0.000005   -0.000031
   -1   -1   -1   13   25    0.010250    0.005881
   -1   -1   -1   14   25    0.004622    0.001979
   -1   -1   -1   15   25   -0.001178    0.001432
   -1   -1   -1   16   25   -0.000108    0.002190
   -1   -1   -1   17   25    0.000177    0.000480
   -1   -1   -1   18   25   -0.001237   -0.000935
   -1   -1   -1   19   25    0.000346   -0.000643
   -1   -1   -1   20   25   -0.002355   -0.000514
   -1   -1   -1   21   25    0.000433   -0.000184
   -1   -1   -1   22   25   -0.000926   -0.000449
   -1   -1   -1   23   25    0.000432   -0.000592
   -1   -1   -1   24   25   -0.001101   -0.000200
   -1   -1   -1   25   25    0.000016   -0.000000
   -1   -1   -1   26   25   -0.000031    0.000815
   -1   -1   -1   27   25   -0.001522   -0.000290
   -1   -1   -1   28   25    0.000586   -0.001044
   -1   -1   -1   29   25    0.000122   -0.000132
   -1   -1   -1   30   25    0.000382    0.000560
   -1   -1   -1   31   25    0.000551   -0.000296
   -1   -1   -1   32   25    0.000326    0.000614
   -1   -1   -1   33   25   -0.001085   -0.000222
   -1   -1   -1   34   25    0.001603    0.000256
   -1   -1   -1   35   25   -0.000185   -0.000242
   -1   -1   -1   36   25   -0.000322   -0.000066
   -1   -1   -1    1   26   -0.030110   -0.000546
   -1   -1   -1    2   26   -0.004523   -0.000520
   -1   -1   -1    3   26   -0.012885    0.000169
   -1   -1   -1    4   26    0.009005    0.000137
   -1   -1   -1    5   26   -0.001012    0.000018
   -1   -1   -1    6   26    0.000448    0.000151
   -1   -1   -1    7   26    0.000019   -0.000034
   -1   -1   -1    8   26    0.000093    0.000065
   -1   -1   -1    9   26   -0.001485    0.000233
   -1   -1   -1   10   26    0.000070   -0.000034
   -1   -1   -1   11   26   -0.000184   -0.000231
   -1   -1   -1   12   26   -0.000933   -0.000108
   -1   -1   -1   13   26    0.021404   -0.000514
   -1   -1   -1   14   26   -0.011136    0.000043
   -1   -1   -1   15   26    0.000338    0.000205
   -1   -1   -1   16   26   -0.000963    0.000061
   -1   -1   -1   17   26   -0.000137   -0.000039
   -1   -1   -1   18   26   -0.002326    0.000056
   -1   -1   -1   19   26   -0.000066    0.000093
   -1   -1   -1   20   26   -0.000675   -0.000029
   -1   -1   -1   21   26    0.000524    0.000124
   -1   -1   -1   22   26   -0.000957    0.000036
   -1   -1   -1   23   26   -0.000084   -0.000002
   -1   -1   -1   24   26   -0.000418    0.000071
   -1   -1   -1   25   26   -0.000031   -0.000815
   -1   -1   -1   26   26    0.000326   -0.000000
   -1   -1   -1   27   26   -0.001004    0.000004
   -1   -1   -1   28   26    0.000521    0.000023
   -1   -1   -1   29   26    0.000172    0.000974
   -1   -1   -1   30   26    0.000325   -0.000093
   -1   -1   -1   31   26   -0.001261   -0.000079
   -1   -1   -1   32   26    0.000788   -0.000011
   -1   -1   -1   33   26    0.003299   -0.000054
   -1   -1   -1   34   26    0.007428   -0.000040
   -1   -1   -1   35   26    0.000023   -0.000018
   -1   -1   -1   36   26   -0.000083   -0.000024
   -1   -1   -1    1   27   -0.003003    0.000467
   -1   -1   -1    2   27   -0.001186   -0.000813
   -1   -1   -1    3   27    0.001289   -0.000019
   -1   -1   -1    4   27   -0.003083   -0.000701
   -1   -1   -1    5   27   -0.000095   -0.000006
   -1   -1   -1    6   27    0.000114    0.000104
   -1   -1   -1    7   27    0.001156    0.000024
   -1   -1   -1    8   27   -0.000189    0.000050
   -1   -1   -1    9   27    0.000104   -0.000190
   -1   -1   -1   10   27   -0.000062    0.000513
   -1   -1   -1   11   27   -0.000301   -0.000010
   -1   -1   -1   12   27    0.000109    0.000117
   -1   -1   -1   13   27    0.002283    0.001308
   -1   -1   -1   14   27    0.000332   -0.000197
   -1   -1   -1   15   27    0.001778    0.000099
   -1   -1   -1   16   27   -0.001100    0.000051
   -1   -1   -1   17   27    0.000350   -0.000148
   -1   -1   -1   18   27    0.000200    0.000056
   -1   -1   -1   19   27   -0.002275   -0.000013
   -1   -1   -1   20   27   -0.000169   -0.000079
   -1   -1   -1   21   27    0.000225    0.000213
   -1   -1   -1   22   27    0.000020    0.000029
   -1   -1   -1   23   27   -0.002020    0.000044
   -1   -1   -1   24   27    0.000008    0.000107
   -1   -1   -1   25   27   -0.001522    0.000290
   -1   -1   -1   26   27   -0.001004   -0.000004
   -1   -1   -1   27   27   -0.000071    0.000000
   -1   -1   -1   28   27   -0.000384    0.000030
   -1   -1   -1   29   27    0.000721   -0.000588
   -1   -1   -1   30   27   -0.000698    0.000014
   -1   -1   -1   31   27    0.000053    0.000091
   -1   -1   -1   32   27   -0.000347    0.000017
   -1   -1   -1   33   27    0.000034    0.000058
   -1   -1   -1   34   27   -0.000091   -0.000025
   -1   -1   -1   35   27    0.002540   -0.000002
   -1   -1   -1   36   27   -0.000013    0.000009
   -1   -1   -1    1   28    0.003140   -0.000403
   -1   -1   -1    2   28    0.001326   -0.000910
   -1   -1   -1    3   28   -0.004279   -0.000536
   -1   -1   -1    4   28   -0.002395   -0.001113
   -1   -1   -1    5   28    0.000244    0.000072
   -1   -1   -1    6   28    0.000675   -0.000052
   -1   -1   -1    7   28   -0.000206    0.000049
   -1   -1   -1    8   28    0.001073    0.000015
   -1   -1   -1    9   28   -0.002123   -0.000084
   -1   -1   -1   10   28   -0.000026    0.000131
   -1   -1   -1   11   28    0.000129    0.000478
   -1   -1   -1   12   28    0.000158    0.000290
   -1   -1   -1   13   28    0.000318    0.000756
   -1   -1   -1   14   28   -0.000070    0.000192
   -1   -1   -1   15   28   -0.000434    0.000215
   -1   -1   -1   16   28    0.002623    0.000023
   -1   -1   -1   17   28    0.001649   -0.000103
   -1   -1   -1   18   28   -0.000107   -0.000130
   -1   -1   -1   19   28    0.000243    0.000053
   -1   -1   -1   20   28    0.000741   -0.000004
   -1   -1   -1   21   28   -0.001679   -0.000091
   -1   -1   -1   22   28    0.000107   -0.000005
   -1   -1   -1   23   28    0.000031   -0.000100
   -1   -1   -1   24   28    0.000502   -0.000013
   -1   -1   -1   25   28    0.000586    0.001044
   -1   -1   -1   26   28    0.000521   -0.000023
   -1   -1   -1   27   28   -0.000384   -0.000030
   -1   -1   -1   28   28   -0.000375    0.000000
   -1   -1   -1   29   28    0.000211    0.000732
   -1   -1   -1   30   28    0.000465    0.000042
   -1   -1   -1   31   28   -0.000350    0.000012
   -1   -1   -1   32   28   -0.000510    0.000010
   -1   -1   -1   33   28    0.000082    0.000019
   -1   -1   -1   34   28    0.000022    0.000054
   -1   -1   -1   35   28   -0.000043    0.000031
   -1   -1   -1   36   28    0.002690   -0.000046
   -1   -1   -1    1   29    0.002274    0.003904
   -1   -1   -1    2   29   -0.001098    0.001303
   -1   -1   -1    3   29    0.009561    0.002059
   -1   -1   -1    4   29   -0.007043    0.000283
   -1   -1   -1    5   29   -0.004534   -0.000517
   -1   -1   -1    6   29   -0.000257   -0.000107
   -1   -1   -1    7   29   -0.000010   -0.000159
   -1   -1   -1    8   29    0.000055   -0.000204
   -1   -1   -1    9   29    0.000230   -0.000583
   -1   -1   -1   10   29    0.000268   -0.000294
   -1   -1   -1   11   29   -0.000346    0.000806
   -1   -1   -1   12   29    0.000699   -0.000125
   -1   -1   -1   13   29   -0.014545   -0.001136
   -1   -1   -1   14   29   -0.006132   -0.000111
   -1   -1   -1   15   29    0.000523   -0.000835
   -1   -1   -1   16   29    0.005309   -0.001241
   -1   -1   -1   17   29   -0.000643   -0.000273
   -1   -1   -1   18   29    0.000938    0.000973
   -1   -1   -1   19   29   -0.000204    0.000323
   -1   -1   -1   20   29    0.002328    0.000283
   -1   -1   -1   21   29    0.000006    0.000032
   -1   -1   -1   22   29    0.000395    0.000437
   -1   -1   -1   23   29    0.000359   -0.000008
   -1   -1   -1   24   29    0.001467    0.000002
   -1   -1   -1   25   29    0.000122    0.000132
   -1   -1   -1   26   29    0.000172   -0.000974
   -1   -1   -1   27   29    0.000721    0.000588
   -1   -1   -1   28   29    0.000211   -0.000732
   -1   -1   -1   29   29    0.000660   -0.000000
   -1   -1   -1   30   29   -0.000601    0.000611
   -1   -1   -1   31   29    0.001233    0.000714
   -1   -1   -1   32   29   -0.001442    0.000052
   -1   -1   -1   33   29   -0.000027    0.000230
   -1   -1   -1   34   29   -0.001283   -0.000283
   -1   -1   -1   35   29   -0.000260    0.000394
   -1   -1   -1   36   29   -0.000257    0.000265
   -1   -1   -1    1   30   -0.117323    0.000671
   -1   -1   -1    2   30   -0.012577    0.000517
   -1   -1   -1    3   30   -0.038347    0.000579
   -1   -1   -1    4   30    0.030155    0.000314
   -1   -1   -1    5   30   -0.005978    0.000026
   -1   -1   -1    6   30   -0.000890   -0.000059
   -1   -1   -1    7   30    0.000030    0.000032
   -1   -1   -1    8   30   -0.000172   -0.000030
   -1   -1   -1    9   30   -0.001195    0.000297
   -1   -1   -1   10   30   -0.000107   -0.000103
   -1   -1   -1   11   30   -0.000426   -0.000121
   -1   -1   -1   12   30   -0.000751   -0.000278
   -1   -1   -1   13   30    0.060323   -0.000302
   -1   -1   -1   14   30   -0.043242   -0.000048
   -1   -1   -1   15   30    0.001849    0.000071
   -1   -1   -1   16   30   -0.000989   -0.000159
   -1   -1   -1   17   30    0.000164    0.000192
   -1   -1   -1   18   30   -0.005248    0.000117
   -1   -1   -1   19   30   -0.000080   -0.000021
   -1   -1   -1   20   30   -0.000278    0.000047
   -1   -1   -1   21   30    0.000423   -0.000180
   -1   -1   -1   22   30   -0.002075    0.000057
   -1   -1   -1   23   30   -0.000137   -0.000030
   -1   -1   -1   24   30    0.000019   -0.000000
   -1   -1   -1   25   30    0.000382   -0.000560
   -1   -1   -1   26   30    0.000325    0.000093
   -1   -1   -1   27   30   -0.000698   -0.000014
   -1   -1   -1   28   30    0.000465   -0.000042
   -1   -1   -1   29   30   -0.000601   -0.000611
   -1   -1   -1   30   30    0.000168   -0.000000
   -1   -1   -1   31   30   -0.000896   -0.000000
   -1   -1   -1   32   30    0.000512    0.000022
   -1   -1   -1   33   30    0.001519   -0.000061
   -1   -1   -1   34   30    0.003428   -0.000037
   -1   -1   -1   35   30   -0.000117   -0.000014
   -1   -1   -1   36   30    0.000047   -0.000005
   -1   -1   -1    1   31   -0.017589   -0.000924
   -1   -1   -1    2   31    0.016762    0.000140
   -1   -1   -1    3   31   -0.000720   -0.000043
   -1   -1   -1    4   31   -0.017737    0.001076
   -1   -1   -1    5   31    0.000101   -0.000104
   -1   -1   -1    6   31    0.000133   -0.000106
   -1   -1   -1    7   31    0.001759   -0.000001
   -1   -1   -1    8   31   -0.000171   -0.000038
   -1   -1   -1    9   31    0.000092    0.000257
   -1   -1   -1   10   31    0.000352   -0.000229
   -1   -1   -1   11   31   -0.000322    0.000027
   -1   -1   -1   12   31    0.000053    0.000054
   -1   -1   -1   13   31   -0.001960   -0.000968
   -1   -1   -1   14   31    0.000733    0.000166
   -1   -1   -1   15   31    0.014205    0.000179
   -1   -1   -1   16   31    0.000452   -0.000063
   -1   -1   -1   17   31    0.000246    0.000156
   -1   -1   -1   18   31   -0.000401   -0.000039
   -1   -1   -1   19   31   -0.003556   -0.000024
   -1   -1   -1   20   31    0.000038   -0.000125
   -1   -1   -1   21   31   -0.000498   -0.000239
   -1   -1   -1   22   31   -0.000134    0.000022
   -1   -1   -1   23   31   -0.002383    0.000004
   -1   -1   -1   24   31   -0.000118    0.000067
   -1   -1   -1   25   31    0.000551    0.000296
   -1   -1   -1   26   31   -0.001261    0.000079
   -1   -1   -1   27   31    0.000053   -0.000091
   -1   -1   -1   28   31   -0.000350   -0.000012
   -1   -1   -1   29   31    0.001233   -0.000714
   -1   -1   -1   30   31   -0.000896    0.000000
   -1   -1   -1   31   31   -0.000094    0.000000
   -1   -1   -1   32   31   -0.000409   -0.000003
   -1   -1   -1   33   31   -0.000013   -0.000094
   -1   -1   -1   34   31    0.000118   -0.000026
   -1   -1   -1   35   31    0.001937    0.000000
   -1   -1   -1   36   31   -0.000052    0.000005
   -1   -1   -1    1   32    0.010462   -0.000373
   -1   -1   -1    2   32    0.003140    0.000687
   -1   -1   -1    3   32   -0.011370    0.000320
   -1   -1   -1    4   32   -0.018535    0.000845
   -1   -1   -1    5   32   -0.000064   -0.000108
   -1   -1   -1    6   32    0.000592   -0.000021
   -1   -1   -1    7   32   -0.000081   -0.000026
   -1   -1   -1    8   32    0.001313   -0.000066
   -1   -1   -1    9   32   -0.001862    0.000101
   -1   -1   -1   10   32   -0.000132   -0.000224
   -1   -1   -1   11   32   -0.000253   -0.000287
   -1   -1   -1   12   32    0.000087   -0.000142
   -1   -1   -1   13   32   -0.005533   -0.000471
   -1   -1   -1   14   32   -0.000342   -0.000594
   -1   -1   -1   15   32    0.000409   -0.000039
   -1   -1   -1   16   32    0.019203   -0.000052
   -1   -1   -1   17   32    0.000805   -0.000099
   -1   -1   -1   18   32   -0.001930    0.000050
   -1   -1   -1   19   32   -0.000287    0.000105
   -1   -1   -1   20   32    0.001711    0.000056
   -1   -1   -1   21   32   -0.002807    0.000002
   -1   -1   -1   22   32   -0.000496    0.000053
   -1   -1   -1   23   32   -0.000005   -0.000068
   -1   -1   -1   24   32    0.000704    0.000035
   -1   -1   -1   25   32    0.000326   -0.000614
   -1   -1   -1   26   32    0.000788    0.000011
   -1   -1   -1   27   32   -0.000347   -0.000017
   -1   -1   -1   28   32   -0.000510   -0.000010
   -1   -1   -1   29   32   -0.001442   -0.000052
   -1   -1   -1   30   32    0.000512   -0.000022
   -1   -1   -1   31   32   -0.000409    0.000003
   -1   -1   -1   32   32   -0.000529    0.000000
   -1   -1   -1   33   32    0.000300   -0.000031
   -1   -1   -1   34   32   -0.000011   -0.000081
   -1   -1   -1   35   32   -0.000037    0.000022
   -1   -1   -1   36   32    0.002079    0.000011
   -1   -1   -1    1   33   -0.468439    0.000970
   -1   -1   -1    2   33   -0.050873   -0.000943
   -1   -1   -1    3   33    0.159810    0.000881
   -1   -1   -1    4   33   -0.041654   -0.001100
   -1   -1   -1    5   33   -0.000046   -0.000010
   -1   -1   -1    6   33    0.003072   -0.000065
   -1   -1   -1    7   33   -0.013967   -0.000030
   -1   -1   -1    8   33    0.005521   -0.000063
   -1   -1   -1    9   33   -0.001317    0.000113
   -1   -1   -1   10   33   -0.000142    0.000325
   -1   -1   -1   11   33    0.001418   -0.000080
   -1   -1   -1   12   33    0.000653    0.000026
   -1   -1   -1   13   33   -0.141298    0.001859
   -1   -1   -1   14   33   -0.030434   -0.003431
   -1   -1   -1   15   33   -0.377021    0.001488
   -1   -1   -1   16   33    0.360940    0.001570
   -1   -1   -1   17   33   -0.000392   -0.000299
   -1   -1   -1   18   33   -0.010192    0.000057
   -1   -1   -1   19   33    0.019345    0.000291
   -1   -1   -1   20   33    0.013020    0.000183
   -1   -1   -1   21   33   -0.005906   -0.000251
   -1   -1   -1   22   33    0.001488   -0.000127
   -1   -1   -1   23   33    0.010525   -0.000377
   -1   -1   -1   24   33    0.003984    0.000401
   -1   -1   -1   25   33   -0.001085    0.000222
   -1   -1   -1   26   33    0.003299    0.000054
   -1   -1   -1   27   33    0.000034   -0.000058
   -1   -1   -1   28   33    0.000082   -0.000019
   -1   -1   -1   29   33   -0.000027   -0.000230
   -1   -1   -1   30   33    0.001519    0.000061
   -1   -1   -1   31   33   -0.000013    0.000094
   -1   -1   -1   32   33    0.000300    0.000031
   -1   -1   -1   33   33    0.000912   -0.000000
   -1   -1   -1   34   33    0.001222    0.000607
   -1   -1   -1   35   33   -0.006274   -0.000321
   -1   -1   -1   36   33    0.000962   -0.001274
   -1   -1   -1    1   34   -0.853852    0.000117
   -1   -1   -1    2   34   -0.155245   -0.000792
   -1   -1   -1    3   34   -0.059128    0.001360
   -1   -1   -1    4   34   -0.028469   -0.000578
   -1   -1   -1    5   34   -0.033552   -0.000465
   -1   -1   -1    6   34    0.000298    0.000010
   -1   -1   -1    7   34   -0.013607   -0.000160
   -1   -1   -1    8   34    0.006953   -0.000448
   -1   -1   -1    9   34    0.000491   -0.000063
   -1   -1   -1   10   34   -0.000378    0.000147
   -1   -1   -1   11   34    0.000987    0.000020
   -1   -1   -1   12   34    0.000430    0.000015
   -1   -1   -1   13   34    0.029828    0.000285
   -1   -1   -1   14   34   -0.083582   -0.001437
   -1   -1   -1   15   34   -0.063334    0.000076
   -1   -1   -1   16   34    0.068802   -0.000301
   -1   -1   -1   17   34    0.005358   -0.000373
   -1   -1   -1   18   34    0.010282    0.000015
   -1   -1   -1   19   34    0.033660    0.000200
   -1   -1   -1   20   34    0.020421   -0.000005
   -1   -1   -1   21   34   -0.011262   -0.000259
   -1   -1   -1   22   34    0.005473   -0.000052
   -1   -1   -1   23   34    0.016089   -0.000376
   -1   -1   -1   24   34    0.007959    0.000416
   -1   -1   -1   25   34    0.001603   -0.000256
   -1   -1   -1   26   34    0.007428    0.000040
   -1   -1   -1   27   34   -0.000091    0.000025
   -1   -1   -1   28   34    0.000022   -0.000054
   -1   -1   -1   29   34   -0.001283    0.000283
   -1   -1   -1   30   34    0.003428    0.000037
   -1   -1   -1   31   34    0.000118    0.000026
   -1   -1   -1   32   34   -0.000011    0.000081
   -1   -1   -1   33   34    0.001222   -0.000607
   -1   -1   -1   34   34   -0.000293    0.000000
   -1   -1   -1   35   34   -0.000385   -0.000053
   -1   -1   -1   36   34   -0.000018   -0.000268
   -1   -1   -1    1   35   -0.016607    0.000546
   -1   -1   -1    2   35    0.274209   -0.002565
   -1   -1   -1    3   35    0.113703    0.000245
   -1   -1   -1    4   35   -0.029538   -0.000702
   -1   -1   -1    5   35   -0.005335   -0.000107
   -1   -1   -1    6   35    0.005224    0.000171
   -1   -1   -1    7   35    0.000084   -0.000020
   -1   -1   -1    8   35   -0.001300    0.000084
   -1   -1   -1    9   35    0.005474    0.000061
   -1   -1   -1   10   35    0.000267    0.000460
   -1   -1   -1   11   35    0.000157   -0.000139
   -1   -1   -1   12   35    0.000868    0.000042
   -1   -1   -1   13   35   -0.428377   -0.000786
   -1   -1   -1   14   35    0.000228   -0.000401
   -1   -1   -1   15   35    0.060756    0.000310
   -1   -1   -1   16   35   -0.076350    0.000970
   -1   -1   -1   17   35   -0.001215    0.000047
   -1   -1   -1   18   35    0.029731   -0.000113
   -1   -1   -1   19   35   -0.003107   -0.000099
   -1   -1   -1   20   35    0.004222   -0.000035
   -1   -1   -1   21   35    0.004991   -0.000226
   -1   -1   -1   22   35    0.010931    0.000056
   -1   -1   -1   23   35    0.001978    0.000075
   -1   -1   -1   24   35    0.003120   -0.000073
   -1   -1   -1   25   35   -0.000185    0.000242
   -1   -1   -1   26   35    0.000023    0.000018
   -1   -1   -1   27   35    0.002540    0.000002
   -1   -1   -1   28   35   -0.000043   -0.000031
   -1   -1   -1   29   35   -0.000260   -0.000394
   -1   -1   -1   30   35   -0.000117    0.000014
   -1   -1   -1   31   35    0.001937   -0.000000
   -1   -1   -1   32   35   -0.000037   -0.000022
   -1   -1   -1   33   35   -0.006274    0.000321
   -1   -1   -1   34   35   -0.000385    0.000053
   -1   -1   -1   35   35    0.000297    0.000000
   -1   -1   -1   36   35    0.000056    0.000005
   -1   -1   -1    1   36    0.027181   -0.000168
   -1   -1   -1    2   36   -0.505813   -0.006380
   -1   -1   -1    3   36   -0.019101   -0.000407
   -1   -1   -1    4   36    0.277186   -0.000271
   -1   -1   -1    5   36    0.006091    0.000066
   -1   -1   -1    6   36    0.001273   -0.000225
   -1   -1   -1    7   36   -0.003497    0.000012
   -1   -1   -1    8   36   -0.002812    0.000057
   -1   -1   -1    9   36    0.003486    0.000066
   -1   -1   -1   10   36   -0.000285    0.000299
   -1   -1   -1   11   36    0.000873   -0.000044
   -1   -1   -1   12   36   -0.000957    0.000014
   -1   -1   -1   13   36    0.498988   -0.001610
   -1   -1   -1   14   36    0.010039    0.000118
   -1   -1   -1   15   36   -0.097676   -0.000859
   -1   -1   -1   16   36   -0.162109    0.000121
   -1   -1   -1   17   36    0.001574    0.000416
   -1   -1   -1   18   36    0.019138    0.000050
   -1   -1   -1   19   36    0.003459   -0.000097
   -1   -1   -1   20   36   -0.010266    0.000006
   -1   -1   -1   21   36    0.006346   -0.000276
   -1   -1   -1   22   36    0.006001   -0.000052
   -1   -1   -1   23   36    0.003980    0.000052
   -1   -1   -1   24   36   -0.003298   -0.000131
   -1   -1   -1   25   36   -0.000322    0.000066
   -1   -1   -1   26   36   -0.000083    0.000024
   -1   -1   -1   27   36   -0.000013   -0.000009
   -1   -1   -1   28   36    0.002690    0.000046
   -1   -1   -1   29   36   -0.000257   -0.000265
   -1   -1   -1   30   36    0.000047    0.000005
   -1   -1   -1   31   36   -0.000052   -0.000005
   -1   -1   -1   32   36    0.002079   -0.000011
   -1   -1   -1   33   36    0.000962    0.001274
   -1   -1   -1   34   36   -0.000018    0.000268
   -1   -1   -1   35   36    0.000056   -0.000005
   -1   -1   -1   36   36    0.000380    0.000000
   -1   -1    0    1    1   -0.100452   -0.000000
   -1   -1    0    2    1   -0.108385   -0.000506
   -1   -1    0    3    1   -0.153336    0.000205
   -1   -1    0    4    1    0.067114    0.000370
   -1   -1    0    5    1    0.041831    0.001655
   -1   -1    0    6    1    0.005324    0.000290
   -1   -1    0    7    1   -0.000349    0.000064
   -1   -1    0    8    1    0.000730   -0.000296
   -1   -1    0    9    1   -0.006272   -0.000077
   -1   -1    0   10    1   -0.001241   -0.001076
   -1   -1    0   11    1   -0.000067    0.000257
   -1   -1    0   12    1   -0.004768   -0.000086
   -1   -1    0   13    1   -0.781812   -0.000153
   -1   -1    0   14    1    0.864790    0.000510
   -1   -1    0   15    1   -0.009743    0.000014
   -1   -1    0   16    1    0.002211   -0.000280
   -1   -1    0   17    1   -0.001875   -0.000642
   -1   -1    0   18    1   -0.015555    0.000618
   -1   -1    0   19    1    0.002397   -0.000112
   -1   -1    0   20    1   -0.085022   -0.000155
   -1   -1    0   21    1   -0.014539    0.000334
   -1   -1    0   22    1   -0.011746    0.000606
   -1   -1    0   23    1   -0.002683    0.000131
   -1   -1    0   24    1   -0.022714   -0.000073
   -1   -1    0   25    1    0.001616   -0.000332
   -1   -1    0   26    1   -0.002250   -0.000084
   -1   -1    0   27    1   -0.007320    0.000013
   -1   -1    0   28    1    0.004321    0.000169
   -1   -1    0   29    1   -0.001126    0.001115
   -1   -1    0   30    1   -0.000893    0.000005
   -1   -1    0   31    1   -0.005924   -0.000062
   -1   -1    0   32    1    0.003386    0.000041
   -1   -1    0   33    1    0.000601    0.000051
   -1   -1    0   34    1    0.005070   -0.000051
   -1   -1    0   35    1    0.000366    0.000332
   -1   -1    0   36    1    0.000188   -0.000130
   -1   -1    0    1    2   -0.108385    0.000506
   -1   -1    0    2    2   -0.315756    0.000000
   -1   -1    0    3    2   -0.006126   -0.000462
   -1   -1    0    4    2    0.003623   -0.000051
   -1   -1    0    5    2   -0.008744   -0.000400
   -1   -1    0    6    2   -0.012477   -0.000035
   -1   -1    0    7    2   -0.000070   -0.000080
   -1   -1    0    8    2   -0.001637    0.000023
   -1   -1    0    9    2    0.000492    0.000113
   -1   -1    0   10    2    0.000242    0.000077
   -1   -1    0   11    2   -0.000111    0.000037
   -1   -1    0   12    2    0.000274    0.000035
   -1   -1    0   13    2    0.143846   -0.000213
   -1   -1    0   14    2   -0.202341    0.000883
   -1   -1    0   15    2   -0.393396   -0.001581
   -1   -1    0   16    2    0.663887   -0.006678
   -1   -1    0   17    2   -0.000385    0.000111
   -1   -1    0   18    2    0.009558    0.000285
   -1   -1    0   19    2    0.010767   -0.000064
   -1   -1    0   20    2    0.022962   -0.000086
   -1   -1    0   21    2    0.003426   -0.000359
   -1   -1    0   22    2   -0.001325    0.000188
   -1   -1    0   23    2   -0.001990    0.000148
   -1   -1    0   24    2    0.000251    0.000193
   -1   -1    0   25    2   -0.000399   -0.000046
   -1   -1    0   26    2   -0.000228    0.000028
   -1   -1    0   27    2    0.000120   -0.000153
   -1   -1    0   28    2    0.000033   -0.000077
   -1   -1    0   29    2    0.000342   -0.000214
   -1   -1    0   30    2   -0.000090    0.000001
   -1   -1    0   31    2    0.000140    0.000061
   -1   -1    0   32    2   -0.000074    0.000054
   -1   -1    0   33    2    0.004404   -0.000010
   -1   -1    0   34    2   -0.009319    0.000212
   -1   -1    0   35    2    0.001832    0.000153
   -1   -1    0   36    2   -0.000496   -0.000548
   -1   -1    0    1    3   -0.153336   -0.000205
   -1   -1    0    2    3   -0.006126    0.000462
   -1   -1    0    3    3   -0.480163   -0.000000
   -1   -1    0    4    3    0.726548    0.000045
   -1   -1    0    5    3   -0.003600   -0.000024
   -1   -1    0    6    3    0.004277   -0.000040
   -1   -1    0    7    3    0.002284    0.000026
   -1   -1    0    8    3    0.002836   -0.000072
   -1   -1    0    9    3   -0.000506   -0.000015
   -1   -1    0   10    3    0.000035   -0.000209
   -1   -1    0   11    3   -0.000792    0.000031
   -1   -1    0   12    3    0.000100   -0.000015
   -1   -1    0   13    3    0.049494    0.001555
   -1   -1    0   14    3   -0.065330   -0.001597
   -1   -1    0   15    3    0.068039    0.000268
   -1   -1    0   16    3    0.088243    0.000121
   -1   -1    0   17    3    0.001001   -0.000062
   -1   -1    0   18    3   -0.006904   -0.000202
   -1   -1    0   19    3   -0.006923   -0.000079
   -1   -1    0   20    3    0.002726   -0.000033
   -1   -1    0   21    3   -0.002629    0.000081
   -1   -1    0   22    3    0.000247   -0.000146
   -1   -1    0   23    3   -0.000486    0.000039
   -1   -1    0   24    3    0.002294    0.000378
   -1   -1    0   25    3    0.000891   -0.000200
   -1   -1    0   26    3    0.000828    0.000062
   -1   -1    0   27    3   -0.000136    0.000038
   -1   -1    0   28    3   -0.001060   -0.000005
   -1   -1    0   29    3   -0.000755    0.000391
   -1   -1    0   30    3    0.000449    0.000049
   -1   -1    0   31    3   -0.000005   -0.000024
   -1   -1    0   32    3   -0.001023   -0.000009
   -1   -1    0   33    3    0.000240   -0.000360
   -1   -1    0   34    3    0.000394    0.000274
   -1   -1    0   35    3   -0.000697   -0.000146
   -1   -1    0   36    3   -0.000290   -0.000976
   -1   -1    0    1    4    0.067114   -0.000370
   -1   -1    0    2    4    0.003623    0.000051
   -1   -1    0    3    4    0.726548   -0.000045
   -1   -1    0    4    4    0.305930   -0.000000
   -1   -1    0    5    4   -0.001373    0.000186
   -1   -1    0    6    4   -0.006830    0.000047
   -1   -1    0    7    4    0.001680   -0.000022
   -1   -1    0    8    4    0.004065    0.000109
   -1   -1    0    9    4   -0.004027   -0.000019
   -1   -1    0   10    4    0.000235   -0.000266
   -1   -1    0   11    4   -0.000156    0.000057
   -1   -1    0   12    4    0.000206   -0.000018
   -1   -1    0   13    4   -0.174400   -0.000449
   -1   -1    0   14    4   -0.024625    0.000839
   -1   -1    0   15    4    0.087634   -0.000892
   -1   -1    0   16    4    0.103203   -0.000249
   -1   -1    0   17    4    0.003511    0.000163
   -1   -1    0   18    4   -0.043844    0.000318
   -1   -1    0   19    4   -0.003084   -0.000190
   -1   -1    0   20    4    0.001784    0.000120
   -1   -1    0   21    4    0.002174    0.000190
   -1   -1    0   22    4   -0.014745    0.000180
   -1   -1    0   23    4   -0.002866    0.000155
   -1   -1    0   24    4    0.001003   -0.000360
   -1   -1    0   25    4   -0.000370   -0.000124
   -1   -1    0   26    4   -0.000623    0.000004
   -1   -1    0   27    4   -0.000739   -0.000002
   -1   -1    0   28    4   -0.001013    0.000026
   -1   -1    0   29    4    0.000749    0.000154
   -1   -1    0   30    4   -0.000426    0.000023
   -1   -1    0   31    4   -0.000675   -0.000009
   -1   -1    0   32    4   -0.000767   -0.000013
   -1   -1    0   33    4    0.000040   -0.000008
   -1   -1    0   34    4   -0.000170   -0.000080
   -1   -1    0   35    4    0.001101    0.000086
   -1   -1    0   36    4    0.000013    0.000191
   -1   -1    0    1    5    0.041831   -0.001655
   -1   -1    0    2    5   -0.008744    0.000400
   -1   -1    0    3    5   -0.003600    0.000024
   -1   -1    0    4    5   -0.001373   -0.000186
   -1   -1    0    5    5   -0.074181    0.000000
   -1   -1    0    6    5    0.005242   -0.001599
   -1   -1    0    7    5   -0.070149   -0.008602
   -1   -1    0    8    5    0.158511    0.008231
   -1   -1    0    9    5   -0.036212   -0.001696
   -1   -1    0   10    5   -0.011011    0.007711
   -1   -1    0   11    5    0.035667    0.002102
   -1   -1    0   12    5    0.018428    0.001335
   -1   -1    0   13    5   -0.009235    0.000001
   -1   -1    0   14    5   -0.115648    0.001622
   -1   -1    0   15    5   -0.018752    0.000199
   -1   -1    0   16    5    0.009347   -0.000273
   -1   -1    0   17    5   -0.035658    0.008727
   -1   -1    0   18    5   -0.378981   -0.034819
   -1   -1    0   19    5    1.027870   -0.028437
   -1   -1    0   20    5    0.557639   -0.031704
   -1   -1    0   21    5   -0.041000   -0.123153
   -1   -1    0   22    5    0.357804    0.038943
   -1   -1    0   23    5    1.035317    0.005047
   -1   -1    0   24    5    0.622187   -0.001408
   -1   -1    0   25    5   -0.020813    0.003263
   -1   -1    0   26    5    0.245755    0.001435
   -1   -1    0   27    5    0.001307    0.001256
   -1   -1    0   28    5   -0.001537    0.000736
   -1   -1    0   29    5    0.010766   -0.012492
   -1   -1    0   30    5    0.058680   -0.000094
   -1   -1    0   31    5    0.001849   -0.000607
   -1   -1    0   32    5    0.002885   -0.000489
   -1   -1    0   33    5    0.002735   -0.000001
   -1   -1    0   34    5   -0.001873   -0.000147
   -1   -1    0   35    5   -0.007520   -0.000003
   -1   -1    0   36    5    0.003544    0.000078
   -1   -1    0    1    6    0.005324   -0.000290
   -1   -1    0    2    6   -0.012477    0.000035
   -1   -1    0    3    6    0.004277    0.000040
   -1   -1    0    4    6   -0.006830   -0.000047
   -1   -1    0    5    6    0.005242    0.001599
   -1   -1    0    6    6   -0.048272    0.000000
   -1   -1    0    7    6    0.001738   -0.000244
   -1   -1    0    8    6    0.018010   -0.002530
   -1   -1    0    9    6   -0.000491   -0.000434
   -1   -1    0   10    6   -0.000850    0.000559
   -1   -1    0   11    6   -0.004410   -0.000085
   -1   -1    0   12    6   -0.000332    0.000056
   -1   -1    0   13    6   -0.000649   -0.000143
   -1   -1    0   14    6   -0.003575   -0.000087
   -1   -1    0   15    6   -0.015597   -0.000035
   -1   -1    0   16    6   -0.001366    0.000220
   -1   -1    0   17    6    0.008940   -0.002757
   -1   -1    0   18    6   -0.192696   -0.002898
   -1   -1    0   19    6    0.199051    0.001749
   -1   -1    0   20    6   -0.376865    0.006558
   -1   -1    0   21    6   -0.084041   -0.026833
   -1   -1    0   22    6   -0.147806   -0.000916
   -1   -1    0   23    6   -0.140505   -0.005952
   -1   -1    0   24    6    0.389070   -0.008487
   -1   -1    0   25    6    0.004356    0.000062
   -1   -1    0   26    6   -0.011915    0.000616
   -1   -1    0   27    6   -0.014162   -0.000238
   -1   -1    0   28    6    0.007677   -0.001280
   -1   -1    0   29    6    0.000941    0.001905
   -1   -1    0   30    6   -0.003777    0.000060
   -1   -1    0   31    6    0.000847    0.000412
   -1   -1    0   32    6   -0.008801    0.000370
   -1   -1    0   33    6    0.000482    0.000307
   -1   -1    0   34    6   -0.000502    0.000244
   -1   -1    0   35    6    0.001137   -0.000061
   -1   -1    0   36    6    0.000552    0.000199
   -1   -1    0    1    7   -0.000349   -0.000064
   -1   -1    0    2    7   -0.000070    0.000080
   -1   -1    0    3    7    0.002284   -0.000026
   -1   -1    0    4    7    0.001680    0.000022
   -1   -1    0    5    7   -0.070149    0.008602
   -1   -1    0    6    7    0.001738    0.000244
   -1   -1    0    7    7   -0.513515    0.000000
   -1   -1    0    8    7    0.718145   -0.002851
   -1   -1    0    9    7   -0.002653    0.000024
   -1   -1    0   10    7    0.002288   -0.002957
   -1   -1    0   11    7    0.002048   -0.000227
   -1   -1    0   12    7    0.002341   -0.000206
   -1   -1    0   13    7    0.006981   -0.000026
   -1   -1    0   14    7   -0.037687    0.000308
   -1   -1    0   15    7    0.000538    0.000012
   -1   -1    0   16    7   -0.014475   -0.000012
   -1   -1    0   17    7    0.041219    0.000452
   -1   -1    0   18    7    0.444890   -0.000213
   -1   -1    0   19    7   -0.479967   -0.006924
   -1   -1    0   20    7    0.215040   -0.003233
   -1   -1    0   21    7   -0.014048    0.011964
   -1   -1    0   22    7   -0.416710   -0.005673
   -1   -1    0   23    7   -0.520110    0.004899
   -1   -1    0   24    7    0.145160   -0.000533
   -1   -1    0   25    7   -0.000313    0.000161
   -1   -1    0   26    7    0.000247    0.000374
   -1   -1    0   27    7   -0.002842    0.000060
   -1   -1    0   28    7    0.001389   -0.001049
   -1   -1    0   29    7    0.000270    0.000530
   -1   -1    0   30    7    0.000154   -0.000292
   -1   -1    0   31    7    0.003479   -0.000633
   -1   -1    0   32    7    0.001259    0.001132
   -1   -1    0   33    7    0.000839   -0.000026
   -1   -1    0   34    7    0.000518    0.000035
   -1   -1    0   35    7   -0.000154   -0.000045
   -1   -1    0   36    7   -0.000884   -0.000002
   -1   -1    0    1    8    0.000730    0.000296
   -1   -1    0    2    8   -0.001637   -0.000023
   -1   -1    0    3    8    0.002836    0.000072
   -1   -1    0    4    8    0.004065   -0.000109
   -1   -1    0    5    8    0.158511   -0.008231
   -1   -1    0    6    8    0.018010    0.002530
   -1   -1    0    7    8    0.718145    0.002851
   -1   -1    0    8    8    0.377695   -0.000000
   -1   -1    0    9    8    0.000945    0.000225
   -1   -1    0   10    8    0.002557   -0.001563
   -1   -1    0   11    8    0.002994   -0.000581
   -1   -1    0   12    8   -0.000855    0.000305
   -1   -1    0   13    8   -0.001778   -0.000124
   -1   -1    0   14    8    0.023440    0.001016
   -1   -1    0   15    8   -0.014764   -0.000042
   -1   -1    0   16    8   -0.015812    0.000165
   -1   -1    0   17    8    0.057672   -0.001250
   -1   -1    0   18    8    0.363450   -0.002991
   -1   -1    0   19    8    0.070792    0.007840
   -1   -1    0   20    8   -0.664307   -0.012592
   -1   -1    0   21    8   -0.042367    0.021862
   -1   -1    0   22    8   -0.156073   -0.003032
   -1   -1    0   23    8    0.170858   -0.002533
   -1   -1    0   24    8   -0.691410    0.016971
   -1   -1    0   25    8   -0.002479   -0.001207
   -1   -1    0   26    8   -0.002960   -0.000279
   -1   -1    0   27    8    0.003543    0.001023
   -1   -1    0   28    8   -0.000323   -0.000370
   -1   -1    0   29    8    0.002083    0.001736
   -1   -1    0   30    8   -0.001400   -0.000033
   -1   -1    0   31    8    0.001278   -0.000537
   -1   -1    0   32    8    0.001747   -0.000274
   -1   -1    0   33    8   -0.000954    0.000026
   -1   -1    0   34    8   -0.000372   -0.000055
   -1   -1    0   35    8   -0.000998    0.000043
   -1   -1    0   36    8   -0.001058    0.000049
   -1   -1    0    1    9   -0.006272    0.000077
   -1   -1    0    2    9    0.000492   -0.000113
   -1   -1    0    3    9   -0.000506    0.000015
   -1   -1    0    4    9   -0.004027    0.000019
   -1   -1    0    5    9   -0.036212    0.001696
   -1   -1    0    6    9   -0.000491    0.000434
   -1   -1    0    7    9   -0.002653   -0.000024
   -1   -1    0    8    9    0.000945   -0.000225
   -1   -1    0    9    9    0.071605   -0.000000
   -1   -1    0   10    9    0.014614    0.006616
   -1   -1    0   11    9    0.058047    0.150885
   -1   -1    0   12    9    0.003478    0.026505
[...]
    1    1    1   34   25    0.001603    0.000256
    1    1    1   35   25   -0.000185   -0.000242
    1    1    1   36   25   -0.000322   -0.000066
    1    1    1    1   26   -0.030110   -0.000546
    1    1    1    2   26   -0.004523   -0.000520
    1    1    1    3   26   -0.012885    0.000169
    1    1    1    4   26    0.009005    0.000137
    1    1    1    5   26   -0.001012    0.000018
    1    1    1    6   26    0.000448    0.000151
    1    1    1    7   26    0.000019   -0.000034
    1    1    1    8   26    0.000093    0.000065
    1    1    1    9   26   -0.001485    0.000233
    1    1    1   10   26    0.000070   -0.000034
    1    1    1   11   26   -0.000184   -0.000231
    1    1    1   12   26   -0.000933   -0.000108
    1    1    1   13   26    0.021404   -0.000514
    1    1    1   14   26   -0.011136    0.000043
    1    1    1   15   26    0.000338    0.000205
    1    1    1   16   26   -0.000963    0.000061
    1    1    1   17   26   -0.000137   -0.000039
    1    1    1   18   26   -0.002326    0.000056
    1    1    1   19   26   -0.000066    0.000093
    1    1    1   20   26   -0.000675   -0.000029
    1    1    1   21   26    0.000524    0.000124
    1    1    1   22   26   -0.000957    0.000036
    1    1    1   23   26   -0.000084   -0.000002
    1    1    1   24   26   -0.000418    0.000071
    1    1    1   25   26   -0.000031   -0.000815
    1    1    1   26   26    0.000326   -0.000000
    1    1    1   27   26   -0.001004    0.000004
    1    1    1   28   26    0.000521    0.000023
    1    1    1   29   26    0.000172    0.000974
    1    1    1   30   26    0.000325   -0.000093
    1    1    1   31   26   -0.001261   -0.000079
    1    1    1   32   26    0.000788   -0.000011
    1    1    1   33   26    0.003299   -0.000054
    1    1    1   34   26    0.007428   -0.000040
    1    1    1   35   26    0.000023   -0.000018
    1    1    1   36   26   -0.000083   -0.000024
    1    1    1    1   27   -0.003003    0.000467
    1    1    1    2   27   -0.001186   -0.000813
    1    1    1    3   27    0.001289   -0.000019
    1    1    1    4   27   -0.003083   -0.000701
    1    1    1    5   27   -0.000095   -0.000006
    1    1    1    6   27    0.000114    0.000104
    1    1    1    7   27    0.001156    0.000024
    1    1    1    8   27   -0.000189    0.000050
    1    1    1    9   27    0.000104   -0.000190
    1    1    1   10   27   -0.000062    0.000513
    1    1    1   11   27   -0.000301   -0.000010
    1    1    1   12   27    0.000109    0.000117
    1    1    1   13   27    0.002283    0.001308
    1    1    1   14   27    0.000332   -0.000197
    1    1    1   15   27    0.001778    0.000099
    1    1    1   16   27   -0.001100    0.000051
    1    1    1   17   27    0.000350   -0.000148
    1    1    1   18   27    0.000200    0.000056
    1    1    1   19   27   -0.002275   -0.000013
    1    1    1   20   27   -0.000169   -0.000079
    1    1    1   21   27    0.000225    0.000213
    1    1    1   22   27    0.000020    0.000029
    1    1    1   23   27   -0.002020    0.000044
    1    1    1   24   27    0.000008    0.000107
    1    1    1   25   27   -0.001522    0.000290
    1    1    1   26   27   -0.001004   -0.000004
    1    1    1   27   27   -0.000071    0.000000
    1    1    1   28   27   -0.000384    0.000030
    1    1    1   29   27    0.000721   -0.000588
    1    1    1   30   27   -0.000698    0.000014
    1    1    1   31   27    0.000053    0.000091
    1    1    1   32   27   -0.000347    0.000017
    1    1    1   33   27    0.000034    0.000058
    1    1    1   34   27   -0.000091   -0.000025
    1    1    1   35   27    0.002540   -0.000002
    1    1    1   36   27   -0.000013    0.000009
    1    1    1    1   28    0.003140   -0.000403
    1    1    1    2   28    0.001326   -0.000910
    1    1    1    3   28   -0.004279   -0.000536
    1    1    1    4   28   -0.002395   -0.001113
    1    1    1    5   28    0.000244    0.000072
    1    1    1    6   28    0.000675   -0.000052
    1    1    1    7   28   -0.000206    0.000049
    1    1    1    8   28    0.001073    0.000015
    1    1    1    9   28   -0.002123   -0.000084
    1    1    1   10   28   -0.000026    0.000131
    1    1    1   11   28    0.000129    0.000478
    1    1    1   12   28    0.000158    0.000290
    1    1    1   13   28    0.000318    0.000756
    1    1    1   14   28   -0.000070    0.000192
    1    1    1   15   28   -0.000434    0.000215
    1    1    1   16   28    0.002623    0.000023
    1    1    1   17   28    0.001649   -0.000103
    1    1    1   18   28   -0.000107   -0.000130
    1    1    1   19   28    0.000243    0.000053
    1    1    1   20   28    0.000741   -0.000004
    1    1    1   21   28   -0.001679   -0.000091
    1    1    1   22   28    0.000107   -0.000005
    1    1    1   23   28    0.000031   -0.000100
    1    1    1   24   28    0.000502   -0.000013
    1    1    1   25   28    0.000586    0.001044
    1    1    1   26   28    0.000521   -0.000023
    1    1    1   27   28   -0.000384   -0.000030
    1    1    1   28   28   -0.000375   -0.000000
    1    1    1   29   28    0.000211    0.000732
    1    1    1   30   28    0.000465    0.000042
    1    1    1   31   28   -0.000350    0.000012
    1    1    1   32   28   -0.000510    0.000010
    1    1    1   33   28    0.000082    0.000019
    1    1    1   34   28    0.000022    0.000054
    1    1    1   35   28   -0.000043    0.000031
    1    1    1   36   28    0.002690   -0.000046
    1    1    1    1   29    0.002274    0.003904
    1    1    1    2   29   -0.001098    0.001303
    1    1    1    3   29    0.009561    0.002059
    1    1    1    4   29   -0.007043    0.000283
    1    1    1    5   29   -0.004534   -0.000517
    1    1    1    6   29   -0.000257   -0.000107
    1    1    1    7   29   -0.000010   -0.000159
    1    1    1    8   29    0.000055   -0.000204
    1    1    1    9   29    0.000230   -0.000583
    1    1    1   10   29    0.000268   -0.000294
    1    1    1   11   29   -0.000346    0.000806
    1    1    1   12   29    0.000699   -0.000125
    1    1    1   13   29   -0.014545   -0.001136
    1    1    1   14   29   -0.006132   -0.000111
    1    1    1   15   29    0.000523   -0.000835
    1    1    1   16   29    0.005309   -0.001241
    1    1    1   17   29   -0.000643   -0.000273
    1    1    1   18   29    0.000938    0.000973
    1    1    1   19   29   -0.000204    0.000323
    1    1    1   20   29    0.002328    0.000283
    1    1    1   21   29    0.000006    0.000032
    1    1    1   22   29    0.000395    0.000437
    1    1    1   23   29    0.000359   -0.000008
    1    1    1   24   29    0.001467    0.000002
    1    1    1   25   29    0.000122    0.000132
    1    1    1   26   29    0.000172   -0.000974
    1    1    1   27   29    0.000721    0.000588
    1    1    1   28   29    0.000211   -0.000732
    1    1    1   29   29    0.000660    0.000000
    1    1    1   30   29   -0.000601    0.000611
    1    1    1   31   29    0.001233    0.000714
    1    1    1   32   29   -0.001442    0.000052
    1    1    1   33   29   -0.000027    0.000230
    1    1    1   34   29   -0.001283   -0.000283
    1    1    1   35   29   -0.000260    0.000394
    1    1    1   36   29   -0.000257    0.000265
    1    1    1    1   30   -0.117323    0.000671
    1    1    1    2   30   -0.012577    0.000517
    1    1    1    3   30   -0.038347    0.000579
    1    1    1    4   30    0.030155    0.000314
    1    1    1    5   30   -0.005978    0.000026
    1    1    1    6   30   -0.000890   -0.000059
    1    1    1    7   30    0.000030    0.000032
    1    1    1    8   30   -0.000172   -0.000030
    1    1    1    9   30   -0.001195    0.000297
    1    1    1   10   30   -0.000107   -0.000103
    1    1    1   11   30   -0.000426   -0.000121
    1    1    1   12   30   -0.000751   -0.000278
    1    1    1   13   30    0.060323   -0.000302
    1    1    1   14   30   -0.043242   -0.000048
    1    1    1   15   30    0.001849    0.000071
    1    1    1   16   30   -0.000989   -0.000159
    1    1    1   17   30    0.000164    0.000192
    1    1    1   18   30   -0.005248    0.000117
    1    1    1   19   30   -0.000080   -0.000021
    1    1    1   20   30   -0.000278    0.000047
    1    1    1   21   30    0.000423   -0.000180
    1    1    1   22   30   -0.002075    0.000057
    1    1    1   23   30   -0.000137   -0.000030
    1    1    1   24   30    0.000019   -0.000000
    1    1    1   25   30    0.000382   -0.000560
    1    1    1   26   30    0.000325    0.000093
    1    1    1   27   30   -0.000698   -0.000014
    1    1    1   28   30    0.000465   -0.000042
    1    1    1   29   30   -0.000601   -0.000611
    1    1    1   30   30    0.000168   -0.000000
    1    1    1   31   30   -0.000896   -0.000000
    1    1    1   32   30    0.000512    0.000022
    1    1    1   33   30    0.001519   -0.000061
    1    1    1   34   30    0.003428   -0.000037
    1    1    1   35   30   -0.000117   -0.000014
    1    1    1   36   30    0.000047   -0.000005
    1    1    1    1   31   -0.017589   -0.000924
    1    1    1    2   31    0.016762    0.000140
    1    1    1    3   31   -0.000720   -0.000043
    1    1    1    4   31   -0.017737    0.001076
    1    1    1    5   31    0.000101   -0.000104
    1    1    1    6   31    0.000133   -0.000106
    1    1    1    7   31    0.001759   -0.000001
    1    1    1    8   31   -0.000171   -0.000038
    1    1    1    9   31    0.000092    0.000257
    1    1    1   10   31    0.000352   -0.000229
    1    1    1   11   31   -0.000322    0.000027
    1    1    1   12   31    0.000053    0.000054
    1    1    1   13   31   -0.001960   -0.000968
    1    1    1   14   31    0.000733    0.000166
    1    1    1   15   31    0.014205    0.000179
    1    1    1   16   31    0.000452   -0.000063
    1    1    1   17   31    0.000246    0.000156
    1    1    1   18   31   -0.000401   -0.000039
    1    1    1   19   31   -0.003556   -0.000024
    1    1    1   20   31    0.000038   -0.000125
    1    1    1   21   31   -0.000498   -0.000239
    1    1    1   22   31   -0.000134    0.000022
    1    1    1   23   31   -0.002383    0.000004
    1    1    1   24   31   -0.000118    0.000067
    1    1    1   25   31    0.000551    0.000296
    1    1    1   26   31   -0.001261    0.000079
    1    1    1   27   31    0.000053   -0.000091
    1    1    1   28   31   -0.000350   -0.000012
    1    1    1   29   31    0.001233   -0.000714
    1    1    1   30   31   -0.000896    0.000000
    1    1    1   31   31   -0.000094   -0.000000
    1    1    1   32   31   -0.000409   -0.000003
    1    1    1   33   31   -0.000013   -0.000094
    1    1    1   34   31    0.000118   -0.000026
    1    1    1   35   31    0.001937    0.000000
    1    1    1   36   31   -0.000052    0.000005
    1    1    1    1   32    0.010462   -0.000373
    1    1    1    2   32    0.003140    0.000687
    1    1    1    3   32   -0.011370    0.000320
    1    1    1    4   32   -0.018535    0.000845
    1    1    1    5   32   -0.000064   -0.000108
    1    1    1    6   32    0.000592   -0.000021
    1    1    1    7   32   -0.000081   -0.000026
    1    1    1    8   32    0.001313   -0.000066
    1    1    1    9   32   -0.001862    0.000101
    1    1    1   10   32   -0.000132   -0.000224
    1    1    1   11   32   -0.000253   -0.000287
    1    1    1   12   32    0.000087   -0.000142
    1    1    1   13   32   -0.005533   -0.000471
    1    1    1   14   32   -0.000342   -0.000594
    1    1    1   15   32    0.000409   -0.000039
    1    1    1   16   32    0.019203   -0.000052
    1    1    1   17   32    0.000805   -0.000099
    1    1    1   18   32   -0.001930    0.000050
    1    1    1   19   32   -0.000287    0.000105
    1    1    1   20   32    0.001711    0.000056
    1    1    1   21   32   -0.002807    0.000002
    1    1    1   22   32   -0.000496    0.000053
    1    1    1   23   32   -0.000005   -0.000068
    1    1    1   24   32    0.000704    0.000035
    1    1    1   25   32    0.000326   -0.000614
    1    1    1   26   32    0.000788    0.000011
    1    1    1   27   32   -0.000347   -0.000017
    1    1    1   28   32   -0.000510   -0.000010
    1    1    1   29   32   -0.001442   -0.000052
    1    1    1   30   32    0.000512   -0.000022
    1    1    1   31   32   -0.000409    0.000003
    1    1    1   32   32   -0.000529   -0.000000
    1    1    1   33   32    0.000300   -0.000031
    1    1    1   34   32   -0.000011   -0.000081
    1    1    1   35   32   -0.000037    0.000022
    1    1    1   36   32    0.002079    0.000011
    1    1    1    1   33   -0.468439    0.000970
    1    1    1    2   33   -0.050873   -0.000943
    1    1    1    3   33    0.159810    0.000881
    1    1    1    4   33   -0.041654   -0.001100
    1    1    1    5   33   -0.000046   -0.000010
    1    1    1    6   33    0.003072   -0.000065
    1    1    1    7   33   -0.013967   -0.000030
    1    1    1    8   33    0.005521   -0.000063
    1    1    1    9   33   -0.001317    0.000113
    1    1    1   10   33   -0.000142    0.000325
    1    1    1   11   33    0.001418   -0.000080
    1    1    1   12   33    0.000653    0.000026
    1    1    1   13   33   -0.141298    0.001859
    1    1    1   14   33   -0.030434   -0.003431
    1    1    1   15   33   -0.377021    0.001488
    1    1    1   16   33    0.360940    0.001570
    1    1    1   17   33   -0.000392   -0.000299
    1    1    1   18   33   -0.010192    0.000057
    1    1    1   19   33    0.019345    0.000291
    1    1    1   20   33    0.013020    0.000183
    1    1    1   21   33   -0.005906   -0.000251
    1    1    1   22   33    0.001488   -0.000127
    1    1    1   23   33    0.010525   -0.000377
    1    1    1   24   33    0.003984    0.000401
    1    1    1   25   33   -0.001085    0.000222
    1    1    1   26   33    0.003299    0.000054
    1    1    1   27   33    0.000034   -0.000058
    1    1    1   28   33    0.000082   -0.000019
    1    1    1   29   33   -0.000027   -0.000230
    1    1    1   30   33    0.001519    0.000061
    1    1    1   31   33   -0.000013    0.000094
    1    1    1   32   33    0.000300    0.000031
    1    1    1   33   33    0.000912   -0.000000
    1    1    1   34   33    0.001222    0.000607
    1    1    1   35   33   -0.006274   -0.000321
    1    1    1   36   33    0.000962   -0.001274
    1    1    1    1   34   -0.853852    0.000117
    1    1    1    2   34   -0.155245   -0.000792
    1    1    1    3   34   -0.059128    0.001360
    1    1    1    4   34   -0.028469   -0.000578
    1    1    1    5   34   -0.033552   -0.000465
    1    1    1    6   34    0.000298    0.000010
    1    1    1    7   34   -0.013607   -0.000160
    1    1    1    8   34    0.006953   -0.000448
    1    1    1    9   34    0.000491   -0.000063
    1    1    1   10   34   -0.000378    0.000147
    1    1    1   11   34    0.000987    0.000020
    1    1    1   12   34    0.000430    0.000015
    1    1    1   13   34    0.029828    0.000285
    1    1    1   14   34   -0.083582   -0.001437
    1    1    1   15   34   -0.063334    0.000076
    1    1    1   16   34    0.068802   -0.000301
    1    1    1   17   34    0.005358   -0.000373
    1    1    1   18   34    0.010282    0.000015
    1    1    1   19   34    0.033660    0.000200
    1    1    1   20   34    0.020421   -0.000005
    1    1    1   21   34   -0.011262   -0.000259
    1    1    1   22   34    0.005473   -0.000052
    1    1    1   23   34    0.016089   -0.000376
    1    1    1   24   34    0.007959    0.000416
    1    1    1   25   34    0.001603   -0.000256
    1    1    1   26   34    0.007428    0.000040
    1    1    1   27   34   -0.000091    0.000025
    1    1    1   28   34    0.000022   -0.000054
    1    1    1   29   34   -0.001283    0.000283
    1    1    1   30   34    0.003428    0.000037
    1    1    1   31   34    0.000118    0.000026
    1    1    1   32   34   -0.000011    0.000081
    1    1    1   33   34    0.001222   -0.000607
    1    1    1   34   34   -0.000293    0.000000
    1    1    1   35   34   -0.000385   -0.000053
    1    1    1   36   34   -0.000018   -0.000268
    1    1    1    1   35   -0.016607    0.000546
    1    1    1    2   35    0.274209   -0.002565
    1    1    1    3   35    0.113703    0.000245
    1    1    1    4   35   -0.029538   -0.000702
    1    1    1    5   35   -0.005335   -0.000107
    1    1    1    6   35    0.005224    0.000171
    1    1    1    7   35    0.000084   -0.000020
    1    1    1    8   35   -0.001300    0.000084
    1    1    1    9   35    0.005474    0.000061
    1    1    1   10   35    0.000267    0.000460
    1    1    1   11   35    0.000157   -0.000139
    1    1    1   12   35    0.000868    0.000042
    1    1    1   13   35   -0.428377   -0.000786
    1    1    1   14   35    0.000228   -0.000401
    1    1    1   15   35    0.060756    0.000310
    1    1    1   16   35   -0.076350    0.000970
    1    1    1   17   35   -0.001215    0.000047
    1    1    1   18   35    0.029731   -0.000113
    1    1    1   19   35   -0.003107   -0.000099
    1    1    1   20   35    0.004222   -0.000035
    1    1    1   21   35    0.004991   -0.000226
    1    1    1   22   35    0.010931    0.000056
    1    1    1   23   35    0.001978    0.000075
    1    1    1   24   35    0.003120   -0.000073
    1    1    1   25   35   -0.000185    0.000242
    1    1    1   26   35    0.000023    0.000018
    1    1    1   27   35    0.002540    0.000002
    1    1    1   28   35   -0.000043   -0.000031
    1    1    1   29   35   -0.000260   -0.000394
    1    1    1   30   35   -0.000117    0.000014
    1    1    1   31   35    0.001937   -0.000000
    1    1    1   32   35   -0.000037   -0.000022
    1    1    1   33   35   -0.006274    0.000321
    1    1    1   34   35   -0.000385    0.000053
    1    1    1   35   35    0.000297   -0.000000
    1    1    1   36   35    0.000056    0.000005
    1    1    1    1   36    0.027181   -0.000168
    1    1    1    2   36   -0.505813   -0.006380
    1    1    1    3   36   -0.019101   -0.000407
    1    1    1    4   36    0.277186   -0.000271
    1    1    1    5   36    0.006091    0.000066
    1    1    1    6   36    0.001273   -0.000225
    1    1    1    7   36   -0.003497    0.000012
    1    1    1    8   36   -0.002812    0.000057
    1    1    1    9   36    0.003486    0.000066
    1    1    1   10   36   -0.000285    0.000299
    1    1    1   11   36    0.000873   -0.000044
    1    1    1   12   36   -0.000957    0.000014
    1    1    1   13   36    0.498988   -0.001610
    1    1    1   14   36    0.010039    0.000118
    1    1    1   15   36   -0.097676   -0.000859
    1    1    1   16   36   -0.162109    0.000121
    1    1    1   17   36    0.001574    0.000416
    1    1    1   18   36    0.019138    0.000050
    1    1    1   19   36    0.003459   -0.000097
    1    1    1   20   36   -0.010266    0.000006
    1    1    1   21   36    0.006346   -0.000276
    1    1    1   22   36    0.006001   -0.000052
    1    1    1   23   36    0.003980    0.000052
    1    1    1   24   36   -0.003298   -0.000131
    1    1    1   25   36   -0.000322    0.000066
    1    1    1   26   36   -0.000083    0.000024
    1    1    1   27   36   -0.000013   -0.000009
    1    1    1   28   36    0.002690    0.000046
    1    1    1   29   36   -0.000257   -0.000265
    1    1    1   30   36    0.000047    0.000005
    1    1    1   31   36   -0.000052   -0.000005
    1    1    1   32   36    0.002079   -0.000011
    1    1    1   33   36    0.000962    0.001274
    1    1    1   34   36   -0.000018    0.000268
    1    1    1   35   36    0.000056   -0.000005
    1    1    1   36   36    0.000380   -0.000000
